Title Card Required                                                     
Freq      RMP2-FC                                                     6-31G(d)            
Number of atoms                            I               12
Info1-9                                    I   N=           9
          34          33        1002           0           0         100
           6           2           1
Charge                                     I                0
Multiplicity                               I                1
Number of electrons                        I               40
Number of alpha electrons                  I               20
Number of beta electrons                   I               20
Number of basis functions                  I               89
Number of independent functions            I               89
Number of point charges in /Mol/           I                0
Number of translation vectors              I                0
Atomic numbers                             I   N=          12
           6           1           1           1           6           8
           7           1           6           1           1           1
Nuclear charges                            R   N=          12
  6.00000000E+00  1.00000000E+00  1.00000000E+00  1.00000000E+00  6.00000000E+00
  8.00000000E+00  7.00000000E+00  1.00000000E+00  6.00000000E+00  1.00000000E+00
  1.00000000E+00  1.00000000E+00
Current cartesian coordinates              R   N=          36
 -3.42114700E+00 -1.06885463E+00  2.08658802E-02 -4.76768657E+00 -1.59666820E-02
 -1.13035182E+00 -4.13340079E+00 -1.10655966E+00  1.96055087E+00 -3.29068156E+00
 -3.00896697E+00 -6.76032028E-01 -9.13833632E-01  3.14840260E-01 -3.17779791E-02
 -7.87232676E-01  2.64070869E+00 -4.98219998E-03  1.17274079E+00 -1.20925946E+00
 -4.71454978E-02  9.30448854E-01 -3.10250392E+00 -2.20547291E-02  3.71708586E+00
 -1.95518610E-01  2.87819281E-02  4.65913933E+00 -6.51929561E-01  1.81240844E+00
  4.84583723E+00 -9.27147722E-01 -1.53954631E+00  3.55238798E+00  1.84941911E+00
 -1.42317324E-01
Force Field                                I                0
Int Atom Types                             I   N=          12
           0           0           0           0           0           0
           0           0           0           0           0           0
MM charges                                 R   N=          12
  0.00000000E+00  0.00000000E+00  0.00000000E+00  0.00000000E+00  0.00000000E+00
  0.00000000E+00  0.00000000E+00  0.00000000E+00  0.00000000E+00  0.00000000E+00
  0.00000000E+00  0.00000000E+00
Integer atomic weights                     I   N=          12
          12           1           1           1          12          16
          14           1          12           1           1           1
Real atomic weights                        R   N=          12
  1.20000000E+01  1.00782504E+00  1.00782504E+00  1.00782504E+00  1.20000000E+01
  1.59949146E+01  1.40030740E+01  1.00782504E+00  1.20000000E+01  1.00782504E+00
  1.00782504E+00  1.00782504E+00
Atom fragment info                         I   N=          12
           0           0           0           0           0           0
           0           0           0           0           0           0
Atom residue num                           I   N=          12
           0           0           0           0           0           0
           0           0           0           0           0           0
Nuclear spins                              I   N=          12
           0           1           1           1           0           0
           2           1           0           1           1           1
Nuclear ZEff                               R   N=          12
 -3.60000000E+00 -1.00000000E+00 -1.00000000E+00 -1.00000000E+00 -3.60000000E+00
 -5.60000000E+00 -4.55000000E+00 -1.00000000E+00 -3.60000000E+00 -1.00000000E+00
 -1.00000000E+00 -1.00000000E+00
Nuclear QMom                               R   N=          12
  0.00000000E+00  0.00000000E+00  0.00000000E+00  0.00000000E+00  0.00000000E+00
  0.00000000E+00  2.04400000E+00  0.00000000E+00  0.00000000E+00  0.00000000E+00
  0.00000000E+00  0.00000000E+00
Nuclear GFac                               R   N=          12
  0.00000000E+00  2.79284600E+00  2.79284600E+00  2.79284600E+00  0.00000000E+00
  0.00000000E+00  4.03761000E-01  2.79284600E+00  0.00000000E+00  2.79284600E+00
  2.79284600E+00  2.79284600E+00
MicOpt                                     I   N=          12
          -1          -1          -1          -1          -1          -1
          -1          -1          -1          -1          -1          -1
Number of contracted shells                I               34
Number of primitive shells                 I               83
Pure/Cartesian d shells                    I                1
Pure/Cartesian f shells                    I                0
Highest angular momentum                   I                2
Largest degree of contraction              I                6
Shell types                                I   N=          34
           0          -1          -1           2           0           0
           0           0           0           0           0          -1
          -1           2           0          -1          -1           2
           0          -1          -1           2           0           0
           0          -1          -1           2           0           0
           0           0           0           0
Number of primitives per shell             I   N=          34
           6           3           1           1           3           1
           3           1           3           1           6           3
           1           1           6           3           1           1
           6           3           1           1           3           1
           6           3           1           1           3           1
           3           1           3           1
Shell to atom map                          I   N=          34
           1           1           1           1           2           2
           3           3           4           4           5           5
           5           5           6           6           6           6
           7           7           7           7           8           8
           9           9           9           9          10          10
          11          11          12          12
Primitive exponents                        R   N=          83
  3.04752488E+03  4.57369518E+02  1.03948685E+02  2.92101553E+01  9.28666296E+00
  3.16392696E+00  7.86827235E+00  1.88128854E+00  5.44249258E-01  1.68714478E-01
  8.00000000E-01  1.87311370E+01  2.82539436E+00  6.40121692E-01  1.61277759E-01
  1.87311370E+01  2.82539436E+00  6.40121692E-01  1.61277759E-01  1.87311370E+01
  2.82539436E+00  6.40121692E-01  1.61277759E-01  3.04752488E+03  4.57369518E+02
  1.03948685E+02  2.92101553E+01  9.28666296E+00  3.16392696E+00  7.86827235E+00
  1.88128854E+00  5.44249258E-01  1.68714478E-01  8.00000000E-01  5.48467166E+03
  8.25234946E+02  1.88046958E+02  5.29645000E+01  1.68975704E+01  5.79963534E+00
  1.55396162E+01  3.59993359E+00  1.01376175E+00  2.70005823E-01  8.00000000E-01
  4.17351146E+03  6.27457911E+02  1.42902093E+02  4.02343293E+01  1.28202129E+01
  4.39043701E+00  1.16263619E+01  2.71627981E+00  7.72218397E-01  2.12031498E-01
  8.00000000E-01  1.87311370E+01  2.82539436E+00  6.40121692E-01  1.61277759E-01
  3.04752488E+03  4.57369518E+02  1.03948685E+02  2.92101553E+01  9.28666296E+00
  3.16392696E+00  7.86827235E+00  1.88128854E+00  5.44249258E-01  1.68714478E-01
  8.00000000E-01  1.87311370E+01  2.82539436E+00  6.40121692E-01  1.61277759E-01
  1.87311370E+01  2.82539436E+00  6.40121692E-01  1.61277759E-01  1.87311370E+01
  2.82539436E+00  6.40121692E-01  1.61277759E-01
Contraction coefficients                   R   N=          83
  1.83473713E-03  1.40373228E-02  6.88426223E-02  2.32184443E-01  4.67941348E-01
  3.62311985E-01 -1.19332420E-01 -1.60854152E-01  1.14345644E+00  1.00000000E+00
  1.00000000E+00  3.34946043E-02  2.34726953E-01  8.13757326E-01  1.00000000E+00
  3.34946043E-02  2.34726953E-01  8.13757326E-01  1.00000000E+00  3.34946043E-02
  2.34726953E-01  8.13757326E-01  1.00000000E+00  1.83473713E-03  1.40373228E-02
  6.88426223E-02  2.32184443E-01  4.67941348E-01  3.62311985E-01 -1.19332420E-01
 -1.60854152E-01  1.14345644E+00  1.00000000E+00  1.00000000E+00  1.83107443E-03
  1.39501722E-02  6.84450781E-02  2.32714336E-01  4.70192898E-01  3.58520853E-01
 -1.10777550E-01 -1.48026263E-01  1.13076702E+00  1.00000000E+00  1.00000000E+00
  1.83477216E-03  1.39946270E-02  6.85865518E-02  2.32240873E-01  4.69069948E-01
  3.60455199E-01 -1.14961182E-01 -1.69117479E-01  1.14585195E+00  1.00000000E+00
  1.00000000E+00  3.34946043E-02  2.34726953E-01  8.13757326E-01  1.00000000E+00
  1.83473713E-03  1.40373228E-02  6.88426223E-02  2.32184443E-01  4.67941348E-01
  3.62311985E-01 -1.19332420E-01 -1.60854152E-01  1.14345644E+00  1.00000000E+00
  1.00000000E+00  3.34946043E-02  2.34726953E-01  8.13757326E-01  1.00000000E+00
  3.34946043E-02  2.34726953E-01  8.13757326E-01  1.00000000E+00  3.34946043E-02
  2.34726953E-01  8.13757326E-01  1.00000000E+00
P(S=P) Contraction coefficients            R   N=          83
  0.00000000E+00  0.00000000E+00  0.00000000E+00  0.00000000E+00  0.00000000E+00
  0.00000000E+00  6.89990666E-02  3.16423961E-01  7.44308291E-01  1.00000000E+00
  0.00000000E+00  0.00000000E+00  0.00000000E+00  0.00000000E+00  0.00000000E+00
  0.00000000E+00  0.00000000E+00  0.00000000E+00  0.00000000E+00  0.00000000E+00
  0.00000000E+00  0.00000000E+00  0.00000000E+00  0.00000000E+00  0.00000000E+00
  0.00000000E+00  0.00000000E+00  0.00000000E+00  0.00000000E+00  6.89990666E-02
  3.16423961E-01  7.44308291E-01  1.00000000E+00  0.00000000E+00  0.00000000E+00
  0.00000000E+00  0.00000000E+00  0.00000000E+00  0.00000000E+00  0.00000000E+00
  7.08742682E-02  3.39752839E-01  7.27158577E-01  1.00000000E+00  0.00000000E+00
  0.00000000E+00  0.00000000E+00  0.00000000E+00  0.00000000E+00  0.00000000E+00
  0.00000000E+00  6.75797439E-02  3.23907296E-01  7.40895140E-01  1.00000000E+00
  0.00000000E+00  0.00000000E+00  0.00000000E+00  0.00000000E+00  0.00000000E+00
  0.00000000E+00  0.00000000E+00  0.00000000E+00  0.00000000E+00  0.00000000E+00
  0.00000000E+00  6.89990666E-02  3.16423961E-01  7.44308291E-01  1.00000000E+00
  0.00000000E+00  0.00000000E+00  0.00000000E+00  0.00000000E+00  0.00000000E+00
  0.00000000E+00  0.00000000E+00  0.00000000E+00  0.00000000E+00  0.00000000E+00
  0.00000000E+00  0.00000000E+00  0.00000000E+00
Coordinates of each shell                  R   N=         102
 -3.42114700E+00 -1.06885463E+00  2.08658802E-02 -3.42114700E+00 -1.06885463E+00
  2.08658802E-02 -3.42114700E+00 -1.06885463E+00  2.08658802E-02 -3.42114700E+00
 -1.06885463E+00  2.08658802E-02 -4.76768657E+00 -1.59666820E-02 -1.13035182E+00
 -4.76768657E+00 -1.59666820E-02 -1.13035182E+00 -4.13340079E+00 -1.10655966E+00
  1.96055087E+00 -4.13340079E+00 -1.10655966E+00  1.96055087E+00 -3.29068156E+00
 -3.00896697E+00 -6.76032028E-01 -3.29068156E+00 -3.00896697E+00 -6.76032028E-01
 -9.13833632E-01  3.14840260E-01 -3.17779791E-02 -9.13833632E-01  3.14840260E-01
 -3.17779791E-02 -9.13833632E-01  3.14840260E-01 -3.17779791E-02 -9.13833632E-01
  3.14840260E-01 -3.17779791E-02 -7.87232676E-01  2.64070869E+00 -4.98219998E-03
 -7.87232676E-01  2.64070869E+00 -4.98219998E-03 -7.87232676E-01  2.64070869E+00
 -4.98219998E-03 -7.87232676E-01  2.64070869E+00 -4.98219998E-03  1.17274079E+00
 -1.20925946E+00 -4.71454978E-02  1.17274079E+00 -1.20925946E+00 -4.71454978E-02
  1.17274079E+00 -1.20925946E+00 -4.71454978E-02  1.17274079E+00 -1.20925946E+00
 -4.71454978E-02  9.30448854E-01 -3.10250392E+00 -2.20547291E-02  9.30448854E-01
 -3.10250392E+00 -2.20547291E-02  3.71708586E+00 -1.95518610E-01  2.87819281E-02
  3.71708586E+00 -1.95518610E-01  2.87819281E-02  3.71708586E+00 -1.95518610E-01
  2.87819281E-02  3.71708586E+00 -1.95518610E-01  2.87819281E-02  4.65913933E+00
 -6.51929561E-01  1.81240844E+00  4.65913933E+00 -6.51929561E-01  1.81240844E+00
  4.84583723E+00 -9.27147722E-01 -1.53954631E+00  4.84583723E+00 -9.27147722E-01
 -1.53954631E+00  3.55238798E+00  1.84941911E+00 -1.42317324E-01  3.55238798E+00
  1.84941911E+00 -1.42317324E-01
Constraint Structure                       R   N=          36
 -3.42114700E+00 -1.06885463E+00  2.08658802E-02 -4.76768657E+00 -1.59666820E-02
 -1.13035182E+00 -4.13340079E+00 -1.10655966E+00  1.96055087E+00 -3.29068156E+00
 -3.00896697E+00 -6.76032028E-01 -9.13833632E-01  3.14840260E-01 -3.17779791E-02
 -7.87232676E-01  2.64070869E+00 -4.98219998E-03  1.17274079E+00 -1.20925946E+00
 -4.71454978E-02  9.30448854E-01 -3.10250392E+00 -2.20547291E-02  3.71708586E+00
 -1.95518610E-01  2.87819281E-02  4.65913933E+00 -6.51929561E-01  1.81240844E+00
  4.84583723E+00 -9.27147722E-01 -1.53954631E+00  3.55238798E+00  1.84941911E+00
 -1.42317324E-01
Num ILSW                                   I              100
ILSW                                       I   N=         100
           0           1           0           0           2           0
           0           0           0           0           0          -1
           0           0           0           0           2           0
           0           0           1           0           1           0
           1           0           0           0           0           0
           0           0      100000           0          -1           0
           0           0           0           0           0           0
           0           0           0           1           1           0
           0           0           1           0           0           0
           0           0           4          40           0           0
           0           0           0           0           0           0
           0           0           0           0           0           0
           0           0           0           0           0           0
           0           0           0           0           0           0
           0           0           0           0           0           0
           0           0           0           0           0           0
           0           0           0           0
Num RLSW                                   I               40
RLSW                                       R   N=          40
  1.00000000E+00  1.00000000E+00  1.00000000E+00  1.00000000E+00  1.00000000E+00
  0.00000000E+00  0.00000000E+00  1.00000000E+00  0.00000000E+00  0.00000000E+00
  0.00000000E+00  0.00000000E+00  1.00000000E+00  0.00000000E+00  0.00000000E+00
  0.00000000E+00  0.00000000E+00  1.00000000E+00  0.00000000E+00  0.00000000E+00
  0.00000000E+00  0.00000000E+00  1.00000000E+00  0.00000000E+00  0.00000000E+00
  0.00000000E+00  0.00000000E+00  1.00000000E+00  0.00000000E+00  0.00000000E+00
  0.00000000E+00  0.00000000E+00  1.00000000E+00  0.00000000E+00  0.00000000E+00
  0.00000000E+00  0.00000000E+00  0.00000000E+00  1.00000000E+00  1.00000000E+00
MxBond                                     I                4
NBond                                      I   N=          12
           4           1           1           1           3           1
           3           1           4           1           1           1
IBond                                      I   N=          48
           2           3           4           5           1           0
           0           0           1           0           0           0
           1           0           0           0           1           6
           7           0           5           0           0           0
           5           8           9           0           7           0
           0           0           7          10          11          12
           9           0           0           0           9           0
           0           0           9           0           0           0
RBond                                      R   N=          48
  1.00000000E+00  1.00000000E+00  1.00000000E+00  1.00000000E+00  1.00000000E+00
  0.00000000E+00  0.00000000E+00  0.00000000E+00  1.00000000E+00  0.00000000E+00
  0.00000000E+00  0.00000000E+00  1.00000000E+00  0.00000000E+00  0.00000000E+00
  0.00000000E+00  1.00000000E+00  2.00000000E+00  1.50000000E+00  0.00000000E+00
  2.00000000E+00  0.00000000E+00  0.00000000E+00  0.00000000E+00  1.50000000E+00
  1.00000000E+00  1.00000000E+00  0.00000000E+00  1.00000000E+00  0.00000000E+00
  0.00000000E+00  0.00000000E+00  1.00000000E+00  1.00000000E+00  1.00000000E+00
  1.00000000E+00  1.00000000E+00  0.00000000E+00  0.00000000E+00  0.00000000E+00
  1.00000000E+00  0.00000000E+00  0.00000000E+00  0.00000000E+00  1.00000000E+00
  0.00000000E+00  0.00000000E+00  0.00000000E+00
Virial Ratio                               R      2.002679566727648E+00
SCF Energy                                 R     -2.470031410079474E+02
MP2 Energy                                 R     -2.477295329833199E+02
Total Energy                               R     -2.477295329833199E+02
Post-SCF wavefunction norm                 R      1.566945234657476E+00
RMS Force                                  R      1.170181813732156E-07
RMS Density                                R      2.707012433784764E-09
External E-field                           R   N=          35
  0.00000000E+00  0.00000000E+00  0.00000000E+00  0.00000000E+00  0.00000000E+00
  0.00000000E+00  0.00000000E+00  0.00000000E+00  0.00000000E+00  0.00000000E+00
  0.00000000E+00  0.00000000E+00  0.00000000E+00  0.00000000E+00  0.00000000E+00
  0.00000000E+00  0.00000000E+00  0.00000000E+00  0.00000000E+00  0.00000000E+00
  0.00000000E+00  0.00000000E+00  0.00000000E+00  0.00000000E+00  0.00000000E+00
  0.00000000E+00  0.00000000E+00  0.00000000E+00  0.00000000E+00  0.00000000E+00
  0.00000000E+00  0.00000000E+00  0.00000000E+00  0.00000000E+00  0.00000000E+00
IOpCl                                      I                0
IROHF                                      I                0
Alpha Orbital Energies                     R   N=          89
 -2.05154706E+01 -1.55891652E+01 -1.13510127E+01 -1.12570442E+01 -1.12368939E+01
 -1.36362107E+00 -1.22283703E+00 -1.01498339E+00 -9.27842560E-01 -7.84201401E-01
 -6.85782526E-01 -6.45001874E-01 -6.27578894E-01 -5.84484798E-01 -5.73594265E-01
 -5.51966140E-01 -5.40786090E-01 -4.98473132E-01 -4.12956863E-01 -3.83481718E-01
  1.99443312E-01  2.15569897E-01  2.64837184E-01  2.83231756E-01  3.04229708E-01
  3.22766331E-01  3.27026427E-01  3.40882900E-01  3.74517962E-01  4.21543121E-01
  4.92525146E-01  5.98544344E-01  7.27566959E-01  7.34956928E-01  7.48345622E-01
  7.59134805E-01  8.09030780E-01  8.34787651E-01  9.08014440E-01  9.48014469E-01
  9.57086441E-01  9.99596066E-01  1.03053394E+00  1.06036543E+00  1.10841198E+00
  1.12849763E+00  1.15954961E+00  1.17663953E+00  1.18806906E+00  1.20238107E+00
  1.21988643E+00  1.22735835E+00  1.31048895E+00  1.35679883E+00  1.44315945E+00
  1.54634732E+00  1.60447756E+00  1.63055231E+00  1.65066692E+00  1.69090808E+00
  1.82693776E+00  1.94605843E+00  2.04627687E+00  2.11965146E+00  2.12223846E+00
  2.15839716E+00  2.20206838E+00  2.21807170E+00  2.29643303E+00  2.38250281E+00
  2.41864036E+00  2.52638467E+00  2.55205409E+00  2.59506530E+00  2.65111233E+00
  2.67439527E+00  2.70681726E+00  2.74561715E+00  2.88741293E+00  2.99474696E+00
  3.01512391E+00  3.23267132E+00  3.34709558E+00  3.50241758E+00  4.35301346E+00
  4.46742033E+00  4.58282433E+00  4.68206177E+00  4.90584380E+00
Alpha MO coefficients                      R   N=        7921
  7.65904388E-07  2.11496157E-05 -6.90690884E-06 -2.57659961E-05  1.24133868E-06
 -1.74522505E-04 -1.38776009E-04 -3.42505094E-05 -6.33128826E-06  1.96278882E-05
 -4.99816422E-05 -1.76245300E-05 -3.37032086E-05 -9.88678647E-07  8.48227663E-07
  1.32582400E-05 -4.69712774E-05  1.66598130E-05 -2.75819787E-05  1.32902408E-05
 -2.69657416E-05 -3.20028503E-06  5.03554163E-04  3.63441770E-06 -9.62225544E-06
 -6.82496303E-07 -1.82908770E-04 -1.33040238E-04 -5.67879156E-04  3.44004067E-07
 -4.24544179E-05 -7.52371467E-04 -4.79984913E-05 -3.26052017E-05 -2.04779454E-06
 -9.33064490E-06  9.94689193E-01  2.09765375E-02 -4.99368611E-05 -1.53195938E-03
 -1.85598057E-05  4.47630170E-03  2.64448531E-05  7.98339658E-05 -1.95359610E-06
 -3.90326565E-03 -3.66602874E-03 -4.10718472E-03  1.91620203E-05  2.46385982E-06
  6.39009505E-06 -3.42221180E-06 -2.19698066E-05 -3.19543773E-06 -3.27886072E-05
 -7.03938544E-07 -1.12643922E-05  9.30564227E-05  5.29700742E-05  4.16907360E-06
  9.09493625E-05 -7.87122505E-05 -3.73512917E-05  2.61939616E-05  1.98094392E-06
 -4.13053383E-10  3.00290086E-05 -1.31367310E-05 -6.79008410E-06 -8.73205187E-06
  2.14013102E-05  9.06817605E-06  3.97093444E-06  1.06401098E-04  4.76474511E-05
  7.42269212E-05 -1.53283899E-05 -4.54424122E-05 -1.96046635E-05 -9.94099308E-06
 -1.94627457E-05 -2.21172499E-06 -6.26450393E-07 -5.69207134E-06 -4.93202113E-06
 -8.31653168E-06 -1.72396867E-05  1.37897084E-05 -1.65064062E-04 -6.93958791E-06
 -2.68763031E-05 -3.43734507E-05 -7.42167257E-06 -8.45728200E-06  2.25816877E-04
 -9.95208127E-05  3.33548859E-04  4.51302911E-05 -6.57354133E-05  2.54608237E-05
 -2.37454466E-05  2.29475415E-05  6.67332775E-06 -1.47482331E-05 -2.43569242E-05
 -5.40613237E-05 -1.74009211E-06 -7.89125794E-05  1.57749930E-05  8.46541281E-05
  1.91736131E-05  1.79264452E-04  1.83306377E-04 -1.17925956E-04  3.01736810E-07
  1.39460166E-03  1.22395797E-03 -7.58966978E-04 -6.97460450E-06 -6.46317389E-05
 -1.20959735E-04 -6.23481252E-05  4.59297572E-05  2.87033414E-06 -5.17740368E-07
 -3.68606139E-06 -5.04908050E-05  3.61365491E-06  1.53447632E-05  1.77295198E-06
  2.19794968E-04 -2.96373584E-04 -2.52587205E-05 -6.27629040E-06 -9.68271201E-06
 -1.32557279E-05 -6.60536467E-05  7.32381710E-05  1.81677593E-06  1.57669872E-06
  9.94950401E-01  2.52656736E-02 -4.16887616E-05  1.51181439E-05  6.77474364E-05
 -3.09673014E-03  2.37586549E-04 -7.26040095E-04 -5.01650707E-05 -3.50873791E-03
 -3.48707557E-03 -3.33849350E-03 -2.86547984E-05 -4.82293917E-06 -1.66837476E-06
  2.25198743E-04  2.43079183E-04 -1.65697818E-06  1.65252862E-04 -2.52651881E-04
 -1.01063592E-04 -2.54487910E-06  1.09397810E-03 -4.35852588E-04  1.93139610E-05
 -2.41790063E-05 -5.94481059E-05 -9.53151308E-05 -5.48393343E-05 -2.44390505E-05
 -2.98991695E-07 -4.37085142E-06 -7.88566215E-05 -2.14268472E-05 -7.25490799E-05
 -3.99563197E-05 -7.69004770E-05 -2.23622914E-04  2.57025335E-03  7.92512509E-05
 -4.78378212E-05 -2.25812496E-05  3.12239002E-05  4.61595155E-03  2.41140326E-03
  5.22318444E-04 -2.31854966E-04 -3.93469812E-04 -2.84864997E-04 -1.16353438E-04
 -2.13704472E-04 -4.38591362E-06  2.82513048E-05 -1.31107442E-04  2.68305517E-04
 -1.91717438E-04  4.34372959E-04 -2.12014524E-04 -8.26986543E-05  9.95862342E-01
  2.61865907E-02  4.83138091E-04 -3.28528693E-05  6.96018700E-06 -7.31010349E-03
  2.78937400E-03  4.63401639E-03 -1.22427344E-05 -1.29818802E-03 -6.69538712E-04
 -2.27150789E-03 -1.43000394E-04 -1.29837917E-05  1.32617428E-05 -2.10858183E-04
  7.80856097E-04  2.61281810E-05 -3.00653139E-04 -4.69313069E-06 -4.11802835E-03
 -3.93970757E-04  1.91946256E-03  4.43029555E-05  3.03537791E-04  9.78867524E-05
  5.00686513E-04  7.93173052E-05 -3.81014020E-08 -1.30684451E-05 -2.76494746E-04
  2.86886514E-04  1.54840786E-04  8.37672184E-05  2.23751760E-06  8.16722863E-04
 -1.04044822E-03 -2.13379785E-03 -1.00428729E-05 -5.54148909E-04 -3.54636683E-04
  1.18085969E-04  3.21191340E-04 -4.84881870E-06 -9.65891743E-06 -3.23767009E-04
 -7.02081318E-04 -6.62810447E-05 -1.56477106E-04 -1.52439732E-04 -9.74995267E-05
 -5.09959051E-06  1.09857022E-03 -7.27292819E-04  3.90323900E-04 -3.71293854E-05
  2.67346909E-04  2.54699581E-05 -2.03362441E-05  1.02192102E-05  1.44281802E-05
 -9.89395347E-06 -2.06399090E-05  1.01293115E-04 -3.71455674E-06  1.07792795E-04
 -1.26814785E-04 -3.84136276E-04  3.95513325E-05 -1.47577944E-04  9.83179182E-05
  1.88404751E-05  4.31118132E-06  2.18663798E-03  6.68313216E-04  5.82900984E-04
 -5.66648784E-05 -7.11105951E-06 -1.57803358E-05 -2.10123188E-05  2.82904617E-05
  4.57356332E-06 -1.55323475E-05 -8.26806471E-05 -1.30601563E-04 -5.66844636E-05
 -5.54458987E-05 -2.56894876E-05 -2.65671424E-06  7.79306267E-05 -1.27104097E-04
 -1.23828543E-04 -8.67417072E-05 -5.43028412E-06  7.65900179E-04  2.84543900E-03
  1.38956519E-03  2.09946430E-06  1.56081118E-04  1.51883995E-04 -6.05607874E-05
 -6.67602796E-05  6.57664384E-06  4.69436909E-06  5.59900860E-05  2.40658749E-04
  2.62373067E-05  4.19574619E-05 -5.74285143E-06 -1.85084339E-03 -5.19591584E-04
  4.11176982E-04  2.52977592E-05  1.71592363E-04  1.08686270E-04  1.12441723E-04
  5.93560255E-05  8.40265918E-06 -1.75911902E-06 -1.86714495E-04  3.09068092E-04
  6.07199972E-05  7.97616291E-05 -2.96412772E-06  1.05482941E-03  5.62918750E-04
 -1.34233092E-03  2.93197093E-05 -6.51547116E-04 -1.54588373E-04  2.21431029E-05
 -1.79977396E-04 -1.73396607E-05 -1.32933273E-05 -2.95376926E-04 -3.38691725E-04
  9.95757025E-01  2.80191529E-02 -7.54711380E-04 -3.49665605E-04 -1.21181847E-05
 -1.30594846E-02  2.22713173E-04  8.64570667E-05 -4.75319745E-05 -1.68585802E-03
 -1.78112394E-03 -1.76398619E-03  1.82381705E-05  3.74921279E-06  2.31292530E-06
  8.75715000E-05  2.52850885E-03  7.36630325E-05  2.47326060E-03  1.54325098E-04
  2.30941425E-03  9.95709066E-01  2.87374520E-02  1.98464687E-04  2.67972471E-05
  5.97785252E-05 -1.56493621E-02 -8.92102918E-04 -6.25190797E-04 -1.09683352E-04
 -1.90087181E-03 -1.88908389E-03 -1.86810508E-03 -2.12337104E-05  5.70447295E-06
  8.81360466E-07  1.75357880E-04  2.52417798E-03  1.47897153E-04  2.65511056E-03
  1.36983862E-04  2.45529720E-03 -2.90411295E-03  2.43447897E-05 -3.51504255E-05
 -5.39216250E-05  2.37262818E-06  2.95762759E-03 -2.54678875E-03 -1.00908346E-03
 -9.45784196E-06 -5.00273169E-04 -3.65740440E-04 -1.37777701E-04 -1.43734461E-04
  4.29089696E-07 -9.83148623E-07 -3.77392143E-05 -2.35884146E-04  3.74184812E-05
  2.63399445E-05 -1.06429054E-05  8.54890981E-04  2.44408997E-04 -3.81226450E-04
  3.95675440E-05 -9.27827913E-05  2.46240599E-05 -2.30557264E-04 -2.22790265E-05
 -1.55718060E-05 -4.83947377E-06 -2.42036367E-05 -2.06425139E-04  1.09278275E-04
  1.07797371E-05 -1.39836290E-05  5.93196014E-04 -8.00105455E-04  2.69160522E-04
  6.15221237E-05  1.61464570E-05  3.25931208E-05 -1.51440933E-04 -6.82208250E-05
 -1.38852819E-05 -3.18631159E-06 -8.60179248E-05  4.12078885E-05 -8.74382980E-05
 -9.57742300E-05 -2.05497013E-05 -1.47828918E-05  4.70303462E-06  6.68272854E-04
 -3.06670044E-04 -1.35840570E-04 -4.86862761E-05  1.11723960E-05 -1.51187676E-05
 -3.90702692E-05  4.91278186E-06  3.32561197E-06  5.84261608E-06 -1.62851327E-05
 -3.14140091E-05 -2.71234398E-05 -5.55997574E-05 -3.06450194E-05  8.61287806E-05
 -2.06118825E-02  4.01749687E-02  2.39956861E-02  1.71938227E-02 -4.33573142E-04
  1.76442743E-04 -7.51598548E-03  3.23937150E-03  4.88428296E-04  5.30034099E-03
  2.46836070E-03  9.19607042E-05  4.92408152E-03 -1.58276511E-06 -3.33583060E-04
  9.02767793E-03 -9.53227495E-05  8.04249008E-03  6.34507830E-04  7.67773398E-03
  1.73883156E-03 -1.24676499E-01  2.42595231E-01  3.45737169E-02  1.31114748E-01
  1.97107153E-03  6.63719352E-02 -2.18748394E-02 -3.48415651E-02 -2.54983188E-05
 -1.11190181E-02  2.72998439E-02 -1.89130452E-02 -6.91208056E-04 -6.47295104E-05
  5.44543030E-04 -1.76771906E-01  3.84505797E-01 -2.77051026E-03 -1.24764138E-01
 -1.27513220E-03  3.74731879E-01  3.22467737E-03 -5.60391352E-02 -7.18507817E-04
 -3.74660791E-03  1.65421767E-02 -3.37524974E-03 -2.91104037E-06 -8.68457126E-06
  2.57819446E-04 -6.32134612E-02  1.31606195E-01 -2.82757024E-02  3.25200378E-02
  1.28093718E-03  1.18180667E-01 -2.79947418E-03  2.36090851E-02  6.00185938E-04
  5.96321079E-03  7.37229806E-03 -3.30850838E-03 -5.28611072E-03 -2.46778483E-05
  1.09070168E-04  2.78323774E-02  1.33014708E-03 -1.92879893E-02  3.50283202E-02
 -2.40335562E-02 -3.69085989E-03 -7.29361087E-04  7.96030090E-03  1.87818876E-03
 -2.04371654E-03  7.59389569E-04  5.11078804E-03  7.44489915E-05 -1.45772823E-03
  1.54674511E-03  1.96535488E-04  2.00508802E-05  6.22933196E-03 -2.91518981E-04
  6.13980148E-03  3.02445219E-04  1.10300172E-02  6.80618815E-03 -1.31621110E-02
  2.49266793E-02  1.69583203E-02 -5.62106076E-03 -3.77961695E-04  1.05006745E-02
  4.45725936E-03 -1.07389583E-02  4.91005013E-04  3.19322211E-03 -8.19185949E-04
 -3.37205890E-04 -2.54582098E-04 -3.77690653E-04  6.27828494E-04  3.01100050E-03
  5.99405206E-04  5.48053950E-03  9.80670484E-05  9.91062366E-03  1.76104506E-03
 -2.58223452E-02  5.55826459E-02  8.57419149E-02 -1.67913820E-01 -1.21133558E-03
  1.01982666E-03 -2.31639501E-02  1.34156250E-03 -7.56379956E-06  1.75314911E-02
 -1.21998173E-02 -1.70607494E-03 -1.55224883E-02 -9.44660387E-05 -2.90492845E-04
  8.90032189E-02 -1.96200403E-01  1.68826334E-02  3.57124293E-02  5.08527358E-04
 -1.93457884E-01  1.17037915E-02  1.28964841E-02  2.02816751E-04 -2.41438283E-04
 -4.78841484E-03  1.12274957E-03 -2.98019947E-03 -4.14618323E-05 -1.00668346E-04
 -1.75301397E-01  3.60934103E-01 -6.68936741E-03  6.14137795E-03  3.44494859E-03
  3.95458695E-01 -8.02940089E-03  8.94853321E-03  1.93290510E-03  1.19642569E-02
  1.32107978E-02 -1.04137107E-02  1.74381592E-03  3.04145717E-04 -5.31076212E-05
  1.05838897E-01  2.38785273E-03 -7.17158045E-02  1.34715255E-01 -7.32855677E-02