Entering Gaussian System, Link 0=g09
 Input=nma.com
 Output=nma.log
 Initial command:
 /usr/local/shared/gaussian/amd64/09-E01/g09/l1.exe "/scratch/bm543/Gau-7559.inp" -scrdir="/scratch/bm543/"
 Entering Link 1 = /usr/local/shared/gaussian/amd64/09-E01/g09/l1.exe PID=      7562.
  
 Copyright (c) 1988,1990,1992,1993,1995,1998,2003,2009,2015,
            Gaussian, Inc.  All Rights Reserved.
  
 This is part of the Gaussian(R) 09 program.  It is based on
 the Gaussian(R) 03 system (copyright 2003, Gaussian, Inc.),
 the Gaussian(R) 98 system (copyright 1998, Gaussian, Inc.),
 the Gaussian(R) 94 system (copyright 1995, Gaussian, Inc.),
 the Gaussian 92(TM) system (copyright 1992, Gaussian, Inc.),
 the Gaussian 90(TM) system (copyright 1990, Gaussian, Inc.),
 the Gaussian 88(TM) system (copyright 1988, Gaussian, Inc.),
 the Gaussian 86(TM) system (copyright 1986, Carnegie Mellon
 University), and the Gaussian 82(TM) system (copyright 1983,
 Carnegie Mellon University). Gaussian is a federally registered
 trademark of Gaussian, Inc.
  
 This software contains proprietary and confidential information,
 including trade secrets, belonging to Gaussian, Inc.
  
 This software is provided under written license and may be
 used, copied, transmitted, or stored only in accord with that
 written license.
  
 The following legend is applicable only to US Government
 contracts under FAR:
  
                    RESTRICTED RIGHTS LEGEND
  
 Use, reproduction and disclosure by the US Government is
 subject to restrictions as set forth in subparagraphs (a)
 and (c) of the Commercial Computer Software - Restricted
 Rights clause in FAR 52.227-19.
  
 Gaussian, Inc.
 340 Quinnipiac St., Bldg. 40, Wallingford CT 06492
  
  
 ---------------------------------------------------------------
 Warning -- This program may not be used in any manner that
 competes with the business of Gaussian, Inc. or will provide
 assistance to any competitor of Gaussian, Inc.  The licensee
 of this program is prohibited from giving any competitor of
 Gaussian, Inc. access to this program.  By using this program,
 the user acknowledges that Gaussian, Inc. is engaged in the
 business of creating and licensing software in the field of
 computational chemistry and represents and warrants to the
 licensee that it is not a competitor of Gaussian, Inc. and that
 it will not use this program in any manner prohibited above.
 ---------------------------------------------------------------
  

 Cite this work as:
 Gaussian 09, Revision E.01,
 M. J. Frisch, G. W. Trucks, H. B. Schlegel, G. E. Scuseria, 
 M. A. Robb, J. R. Cheeseman, G. Scalmani, V. Barone, B. Mennucci, 
 G. A. Petersson, H. Nakatsuji, M. Caricato, X. Li, H. P. Hratchian, 
 A. F. Izmaylov, J. Bloino, G. Zheng, J. L. Sonnenberg, M. Hada, 
 M. Ehara, K. Toyota, R. Fukuda, J. Hasegawa, M. Ishida, T. Nakajima, 
 Y. Honda, O. Kitao, H. Nakai, T. Vreven, J. A. Montgomery, Jr., 
 J. E. Peralta, F. Ogliaro, M. Bearpark, J. J. Heyd, E. Brothers, 
 K. N. Kudin, V. N. Staroverov, T. Keith, R. Kobayashi, J. Normand, 
 K. Raghavachari, A. Rendell, J. C. Burant, S. S. Iyengar, J. Tomasi, 
 M. Cossi, N. Rega, J. M. Millam, M. Klene, J. E. Knox, J. B. Cross, 
 V. Bakken, C. Adamo, J. Jaramillo, R. Gomperts, R. E. Stratmann, 
 O. Yazyev, A. J. Austin, R. Cammi, C. Pomelli, J. W. Ochterski, 
 R. L. Martin, K. Morokuma, V. G. Zakrzewski, G. A. Voth, 
 P. Salvador, J. J. Dannenberg, S. Dapprich, A. D. Daniels, 
 O. Farkas, J. B. Foresman, J. V. Ortiz, J. Cioslowski, 
 and D. J. Fox, Gaussian, Inc., Wallingford CT, 2013.
 
 ******************************************
 Gaussian 09:  EM64L-G09RevE.01 30-Nov-2015
                13-Sep-2018 
 ******************************************
 %NProcShared=8
 Will use up to    8 processors via shared memory.
 ---------------------------------------------------------
 #P HF/6-31G* SCF=Tight Pop=MK IOp(6/33=2,6/41=10,6/42=17)
 ---------------------------------------------------------
 1/38=1/1;
 2/12=2,17=6,18=5,40=1/2;
 3/5=1,6=6,7=1,11=9,16=1,25=1,30=1/1,2,3;
 4//1;
 5/5=2,32=2,38=5/2;
 6/7=2,8=2,9=2,10=2,15=8,20=1,28=1,33=2,41=10,42=17/1,2;
 99/5=1,9=1/99;
 Leave Link    1 at Thu Sep 13 10:58:00 2018, MaxMem=           0 cpu:         0.3
 (Enter /usr/local/shared/gaussian/amd64/09-E01/g09/l101.exe)
 -----
 Title
 -----
 Symbolic Z-matrix:
 Charge =  0 Multiplicity = 1
 C                    -0.71067  -1.35724  -0.00002 
 H                    -0.22497  -1.78239  -0.88352 
 H                    -1.76514  -1.62985  -0.00078 
 H                    -0.22635  -1.78225   0.88432 
 C                    -0.62381   0.15466  -0.00001 
 O                    -1.61974   0.88102   0.00001 
 N                     0.64105   0.67884   0. 
 H                     0.66527   1.69106  -0.00013 
 C                     1.88911  -0.06005   0. 
 H                     2.70865   0.65965   0.00137 
 H                     1.99199  -0.6912    0.88848 
 H                     1.99327  -0.68933  -0.88968 
 
 NAtoms=     12 NQM=       12 NQMF=       0 NMMI=      0 NMMIF=      0
                NMic=       0 NMicF=      0.
                    Isotopes and Nuclear Properties:
 (Nuclear quadrupole moments (NQMom) in fm**2, nuclear magnetic moments (NMagM)
  in nuclear magnetons)

  Atom         1           2           3           4           5           6           7           8           9          10
 IAtWgt=          12           1           1           1          12          16          14           1          12           1
 AtmWgt=  12.0000000   1.0078250   1.0078250   1.0078250  12.0000000  15.9949146  14.0030740   1.0078250  12.0000000   1.0078250
 NucSpn=           0           1           1           1           0           0           2           1           0           1
 AtZEff=   0.0000000   0.0000000   0.0000000   0.0000000   0.0000000   0.0000000   0.0000000   0.0000000   0.0000000   0.0000000
 NQMom=    0.0000000   0.0000000   0.0000000   0.0000000   0.0000000   0.0000000   2.0440000   0.0000000   0.0000000   0.0000000
 NMagM=    0.0000000   2.7928460   2.7928460   2.7928460   0.0000000   0.0000000   0.4037610   2.7928460   0.0000000   2.7928460
 AtZNuc=   6.0000000   1.0000000   1.0000000   1.0000000   6.0000000   8.0000000   7.0000000   1.0000000   6.0000000   1.0000000

  Atom        11          12
 IAtWgt=           1           1
 AtmWgt=   1.0078250   1.0078250
 NucSpn=           1           1
 AtZEff=   0.0000000   0.0000000
 NQMom=    0.0000000   0.0000000
 NMagM=    2.7928460   2.7928460
 AtZNuc=   1.0000000   1.0000000
 Leave Link  101 at Thu Sep 13 10:58:01 2018, MaxMem=    33554432 cpu:         0.5
 (Enter /usr/local/shared/gaussian/amd64/09-E01/g09/l202.exe)
                          Input orientation:                          
 ---------------------------------------------------------------------
 Center     Atomic      Atomic             Coordinates (Angstroms)
 Number     Number       Type             X           Y           Z
 ---------------------------------------------------------------------
      1          6           0       -0.710670   -1.357240   -0.000020
      2          1           0       -0.224970   -1.782390   -0.883520
      3          1           0       -1.765140   -1.629850   -0.000780
      4          1           0       -0.226350   -1.782250    0.884320
      5          6           0       -0.623810    0.154660   -0.000010
      6          8           0       -1.619740    0.881020    0.000010
      7          7           0        0.641050    0.678840    0.000000
      8          1           0        0.665270    1.691060   -0.000130
      9          6           0        1.889110   -0.060050    0.000000
     10          1           0        2.708650    0.659650    0.001370
     11          1           0        1.991990   -0.691200    0.888480
     12          1           0        1.993270   -0.689330   -0.889680
 ---------------------------------------------------------------------
                    Distance matrix (angstroms):
                    1          2          3          4          5
     1  C    0.000000
     2  H    1.094180   0.000000
     3  H    1.089139   1.781747   0.000000
     4  H    1.094192   1.767841   1.781713   0.000000
     5  C    1.514393   2.166062   2.118280   2.166018   0.000000
     6  O    2.415826   3.133650   2.515077   3.133137   1.232670
     7  N    2.443925   2.754678   3.334636   2.755244   1.369173
     8  H    3.344450   3.692934   4.115257   3.693389   2.005555
     9  C    2.905436   2.866426   3.977162   2.867606   2.522076
    10  H    3.969836   3.918254   5.025596   3.918763   3.370505
    11  H    2.921885   3.040656   3.973396   2.472133   2.889170
    12  H    2.923849   2.472935   3.974968   3.044382   2.890145
                    6          7          8          9         10
     6  O    0.000000
     7  N    2.269812   0.000000
     8  H    2.424342   1.012510   0.000000
     9  C    3.632856   1.450383   2.136392   0.000000
    10  H    4.334047   2.067690   2.288932   1.090695   0.000000
    11  H    4.038050   2.119303   2.867922   1.094683   1.767869
    12  H    4.038736   2.119415   2.867253   1.094702   1.767904
                   11         12
    11  H    0.000000
    12  H    1.778161   0.000000
 Stoichiometry    C3H7NO
 Framework group  C1[X(C3H7NO)]
 Deg. of freedom    30
 Full point group                 C1      NOp   1
 Largest Abelian subgroup         C1      NOp   1
 Largest concise Abelian subgroup C1      NOp   1
                         Standard orientation:                         
 ---------------------------------------------------------------------
 Center     Atomic      Atomic             Coordinates (Angstroms)
 Number     Number       Type             X           Y           Z
 ---------------------------------------------------------------------
      1          6           0       -0.710668    1.357239    0.000019
      2          1           0       -0.224968    1.782389    0.883519
      3          1           0       -1.765138    1.629849    0.000779
      4          1           0       -0.226348    1.782249   -0.884321
      5          6           0       -0.623808   -0.154661    0.000009
      6          8           0       -1.619739   -0.881021   -0.000011
      7          7           0        0.641051   -0.678842   -0.000001
      8          1           0        0.665271   -1.691062    0.000129
      9          6           0        1.889112    0.060048   -0.000001
     10          1           0        2.708651   -0.659652   -0.001371
     11          1           0        1.991992    0.691198   -0.888481
     12          1           0        1.993272    0.689328    0.889679
 ---------------------------------------------------------------------
 Rotational constants (GHZ):      8.8036882      4.0967769      2.8973302
 Leave Link  202 at Thu Sep 13 10:58:01 2018, MaxMem=    33554432 cpu:         0.4
 (Enter /usr/local/shared/gaussian/amd64/09-E01/g09/l301.exe)
 Standard basis: 6-31G(d) (6D, 7F)
 Ernie: Thresh=  0.10000D-02 Tol=  0.10000D-05 Strict=F.
 There are    89 symmetry adapted cartesian basis functions of A   symmetry.
 There are    89 symmetry adapted basis functions of A   symmetry.
    89 basis functions,   168 primitive gaussians,    89 cartesian basis functions
    20 alpha electrons       20 beta electrons
       nuclear repulsion energy       179.6864625742 Hartrees.
 IExCor=    0 DFT=F Ex=HF Corr=None ExCW=0 ScaHFX=  1.000000
 ScaDFX=  1.000000  1.000000  1.000000  1.000000 ScalE2=  1.000000  1.000000
 IRadAn=      0 IRanWt=     -1 IRanGd=            0 ICorTp=0 IEmpDi=  4
 NAtoms=   12 NActive=   12 NUniq=   12 SFac= 1.00D+00 NAtFMM=   60 NAOKFM=F Big=F
 Integral buffers will be    131072 words long.
 Raffenetti 1 integral format.
 Two-electron integral symmetry is turned on.
 Leave Link  301 at Thu Sep 13 10:58:01 2018, MaxMem=    33554432 cpu:         0.3
 (Enter /usr/local/shared/gaussian/amd64/09-E01/g09/l302.exe)
 NPDir=0 NMtPBC=     1 NCelOv=     1 NCel=       1 NClECP=     1 NCelD=      1
         NCelK=      1 NCelE2=     1 NClLst=     1 CellRange=     0.0.
 One-electron integrals computed using PRISM.
 NBasis=    89 RedAO= T EigKep=  3.73D-03  NBF=    89
 NBsUse=    89 1.00D-06 EigRej= -1.00D+00 NBFU=    89
 Leave Link  302 at Thu Sep 13 10:58:03 2018, MaxMem=    33554432 cpu:         4.2
 (Enter /usr/local/shared/gaussian/amd64/09-E01/g09/l303.exe)
 DipDrv:  MaxL=1.
 Leave Link  303 at Thu Sep 13 10:58:04 2018, MaxMem=    33554432 cpu:         0.9
 (Enter /usr/local/shared/gaussian/amd64/09-E01/g09/l401.exe)
 ExpMin= 1.61D-01 ExpMax= 5.48D+03 ExpMxC= 8.25D+02 IAcc=1 IRadAn=         1 AccDes= 0.00D+00
 Harris functional with IExCor=  205 and IRadAn=       1 diagonalized for initial guess.
 HarFok:  IExCor=  205 AccDes= 0.00D+00 IRadAn=         1 IDoV= 1 UseB2=F ITyADJ=14
 ICtDFT=  3500011 ScaDFX=  1.000000  1.000000  1.000000  1.000000
 FoFCou: FMM=F IPFlag=           0 FMFlag=      100000 FMFlg1=           0
         NFxFlg=           0 DoJE=T BraDBF=F KetDBF=T FulRan=T
         wScrn=  0.000000 ICntrl=     500 IOpCl=  0 I1Cent=   200000004 NGrid=           0
         NMat0=    1 NMatS0=      1 NMatT0=    0 NMatD0=    1 NMtDS0=    0 NMtDT0=    0
 Petite list used in FoFCou.
 Harris En= -247.358063571634    
 JPrj=0 DoOrth=F DoCkMO=F.
 Leave Link  401 at Thu Sep 13 10:58:07 2018, MaxMem=    33554432 cpu:         6.3
 (Enter /usr/local/shared/gaussian/amd64/09-E01/g09/l502.exe)
 Closed shell SCF:
 Using DIIS extrapolation, IDIIS=  1040.
 Integral symmetry usage will be decided dynamically.
 Keep R1 ints in memory in canonical form, NReq=8933623.
 IVT=       43706 IEndB=       43706 NGot=    33554432 MDV=    25488712
 LenX=    25488712 LenY=    25480350
 Requested convergence on RMS density matrix=1.00D-08 within 128 cycles.
 Requested convergence on MAX density matrix=1.00D-06.
 Requested convergence on             energy=1.00D-06.
 No special actions if energy rises.
 FoFCou: FMM=F IPFlag=           0 FMFlag=           0 FMFlg1=           0
         NFxFlg=           0 DoJE=F BraDBF=F KetDBF=F FulRan=T
         wScrn=  0.000000 ICntrl=     600 IOpCl=  0 I1Cent=           0 NGrid=           0
         NMat0=    1 NMatS0=   4005 NMatT0=    0 NMatD0=    1 NMtDS0=    0 NMtDT0=    0
 Symmetry not used in FoFCou.

 Cycle   1  Pass 1  IDiag  1:
 E= -246.751165056745    
 DIIS: error= 5.59D-02 at cycle   1 NSaved=   1.
 NSaved= 1 IEnMin= 1 EnMin= -246.751165056745     IErMin= 1 ErrMin= 5.59D-02
 ErrMax= 5.59D-02  0.00D+00 EMaxC= 1.00D-01 BMatC= 3.90D-01 BMatP= 3.90D-01
 IDIUse=3 WtCom= 4.41D-01 WtEn= 5.59D-01
 Coeff-Com:  0.100D+01
 Coeff-En:   0.100D+01
 Coeff:      0.100D+01
 Gap=     0.585 Goal=   None    Shift=    0.000
 GapD=    0.585 DampG=2.000 DampE=0.500 DampFc=1.0000 IDamp=-1.
 RMSDP=6.89D-03 MaxDP=1.21D-01              OVMax= 1.36D-01

 Cycle   2  Pass 1  IDiag  1:
 E= -246.959098808737     Delta-E=       -0.207933751992 Rises=F Damp=F
 DIIS: error= 2.48D-02 at cycle   2 NSaved=   2.
 NSaved= 2 IEnMin= 2 EnMin= -246.959098808737     IErMin= 2 ErrMin= 2.48D-02
 ErrMax= 2.48D-02  0.00D+00 EMaxC= 1.00D-01 BMatC= 5.33D-02 BMatP= 3.90D-01
 IDIUse=3 WtCom= 7.52D-01 WtEn= 2.48D-01
 Coeff-Com:  0.207D+00 0.793D+00
 Coeff-En:   0.000D+00 0.100D+01
 Coeff:      0.156D+00 0.844D+00
 Gap=     0.653 Goal=   None    Shift=    0.000
 RMSDP=2.92D-03 MaxDP=5.04D-02 DE=-2.08D-01 OVMax= 5.00D-02

 Cycle   3  Pass 1  IDiag  1:
 E= -246.994529464078     Delta-E=       -0.035430655340 Rises=F Damp=F
 DIIS: error= 8.66D-03 at cycle   3 NSaved=   3.
 NSaved= 3 IEnMin= 3 EnMin= -246.994529464078     IErMin= 3 ErrMin= 8.66D-03
 ErrMax= 8.66D-03  0.00D+00 EMaxC= 1.00D-01 BMatC= 6.14D-03 BMatP= 5.33D-02
 IDIUse=3 WtCom= 9.13D-01 WtEn= 8.66D-02
 Coeff-Com: -0.135D-01 0.221D+00 0.792D+00
 Coeff-En:   0.000D+00 0.000D+00 0.100D+01
 Coeff:     -0.123D-01 0.202D+00 0.810D+00
 Gap=     0.580 Goal=   None    Shift=    0.000
 RMSDP=7.22D-04 MaxDP=2.28D-02 DE=-3.54D-02 OVMax= 2.69D-02

 Cycle   4  Pass 1  IDiag  1:
 E= -246.998816582750     Delta-E=       -0.004287118672 Rises=F Damp=F
 DIIS: error= 2.42D-03 at cycle   4 NSaved=   4.
 NSaved= 4 IEnMin= 4 EnMin= -246.998816582750     IErMin= 4 ErrMin= 2.42D-03
 ErrMax= 2.42D-03  0.00D+00 EMaxC= 1.00D-01 BMatC= 5.58D-04 BMatP= 6.14D-03
 IDIUse=3 WtCom= 9.76D-01 WtEn= 2.42D-02
 Coeff-Com: -0.114D-01 0.358D-01 0.292D+00 0.683D+00
 Coeff-En:   0.000D+00 0.000D+00 0.000D+00 0.100D+01
 Coeff:     -0.111D-01 0.349D-01 0.285D+00 0.691D+00
 Gap=     0.581 Goal=   None    Shift=    0.000
 RMSDP=2.69D-04 MaxDP=4.29D-03 DE=-4.29D-03 OVMax= 5.69D-03

 Cycle   5  Pass 1  IDiag  1:
 E= -246.999301841055     Delta-E=       -0.000485258305 Rises=F Damp=F
 DIIS: error= 7.24D-04 at cycle   5 NSaved=   5.
 NSaved= 5 IEnMin= 5 EnMin= -246.999301841055     IErMin= 5 ErrMin= 7.24D-04
 ErrMax= 7.24D-04  0.00D+00 EMaxC= 1.00D-01 BMatC= 1.91D-05 BMatP= 5.58D-04
 IDIUse=3 WtCom= 9.93D-01 WtEn= 7.24D-03
 Coeff-Com:  0.317D-02-0.249D-01-0.117D+00-0.111D+00 0.125D+01
 Coeff-En:   0.000D+00 0.000D+00 0.000D+00 0.000D+00 0.100D+01
 Coeff:      0.314D-02-0.247D-01-0.116D+00-0.110D+00 0.125D+01
 Gap=     0.582 Goal=   None    Shift=    0.000
 RMSDP=1.39D-04 MaxDP=2.11D-03 DE=-4.85D-04 OVMax= 5.60D-03

 Cycle   6  Pass 1  IDiag  1:
 E= -246.999363711178     Delta-E=       -0.000061870124 Rises=F Damp=F
 DIIS: error= 1.96D-04 at cycle   6 NSaved=   6.
 NSaved= 6 IEnMin= 6 EnMin= -246.999363711178     IErMin= 6 ErrMin= 1.96D-04
 ErrMax= 1.96D-04  0.00D+00 EMaxC= 1.00D-01 BMatC= 3.19D-06 BMatP= 1.91D-05
 IDIUse=3 WtCom= 9.98D-01 WtEn= 1.96D-03
 Coeff-Com:  0.126D-02-0.586D-02-0.346D-01-0.891D-01 0.111D+00 0.102D+01
 Coeff-En:   0.000D+00 0.000D+00 0.000D+00 0.000D+00 0.000D+00 0.100D+01
 Coeff:      0.126D-02-0.585D-02-0.346D-01-0.889D-01 0.111D+00 0.102D+01
 Gap=     0.582 Goal=   None    Shift=    0.000
 RMSDP=5.08D-05 MaxDP=7.99D-04 DE=-6.19D-05 OVMax= 1.61D-03

 Cycle   7  Pass 1  IDiag  1:
 E= -246.999371263671     Delta-E=       -0.000007552493 Rises=F Damp=F
 DIIS: error= 8.50D-05 at cycle   7 NSaved=   7.
 NSaved= 7 IEnMin= 7 EnMin= -246.999371263671     IErMin= 7 ErrMin= 8.50D-05
 ErrMax= 8.50D-05  0.00D+00 EMaxC= 1.00D-01 BMatC= 4.74D-07 BMatP= 3.19D-06
 IDIUse=1 WtCom= 1.00D+00 WtEn= 0.00D+00
 Coeff-Com: -0.458D-03 0.425D-02 0.212D-01 0.744D-02-0.187D+00 0.447D-01
 Coeff-Com:  0.111D+01
 Coeff:     -0.458D-03 0.425D-02 0.212D-01 0.744D-02-0.187D+00 0.447D-01
 Coeff:      0.111D+01
 Gap=     0.582 Goal=   None    Shift=    0.000
 RMSDP=2.06D-05 MaxDP=4.02D-04 DE=-7.55D-06 OVMax= 8.51D-04

 Cycle   8  Pass 1  IDiag  1:
 E= -246.999372565639     Delta-E=       -0.000001301968 Rises=F Damp=F
 DIIS: error= 1.98D-05 at cycle   8 NSaved=   8.
 NSaved= 8 IEnMin= 8 EnMin= -246.999372565639     IErMin= 8 ErrMin= 1.98D-05
 ErrMax= 1.98D-05  0.00D+00 EMaxC= 1.00D-01 BMatC= 5.41D-08 BMatP= 4.74D-07
 IDIUse=1 WtCom= 1.00D+00 WtEn= 0.00D+00
 Coeff-Com: -0.146D-03 0.684D-03 0.435D-02 0.786D-02-0.615D-02-0.143D+00
 Coeff-Com: -0.347D-01 0.117D+01
 Coeff:     -0.146D-03 0.684D-03 0.435D-02 0.786D-02-0.615D-02-0.143D+00
 Coeff:     -0.347D-01 0.117D+01
 Gap=     0.582 Goal=   None    Shift=    0.000
 RMSDP=7.76D-06 MaxDP=1.29D-04 DE=-1.30D-06 OVMax= 2.73D-04

 Cycle   9  Pass 1  IDiag  1:
 E= -246.999372721884     Delta-E=       -0.000000156245 Rises=F Damp=F
 DIIS: error= 8.94D-06 at cycle   9 NSaved=   9.
 NSaved= 9 IEnMin= 9 EnMin= -246.999372721884     IErMin= 9 ErrMin= 8.94D-06
 ErrMax= 8.94D-06  0.00D+00 EMaxC= 1.00D-01 BMatC= 4.27D-09 BMatP= 5.41D-08
 IDIUse=1 WtCom= 1.00D+00 WtEn= 0.00D+00
 Coeff-Com:  0.551D-04-0.467D-03-0.225D-02-0.265D-02 0.178D-01 0.196D-01
 Coeff-Com: -0.919D-01-0.165D+00 0.122D+01
 Coeff:      0.551D-04-0.467D-03-0.225D-02-0.265D-02 0.178D-01 0.196D-01
 Coeff:     -0.919D-01-0.165D+00 0.122D+01
 Gap=     0.582 Goal=   None    Shift=    0.000
 RMSDP=1.77D-06 MaxDP=3.41D-05 DE=-1.56D-07 OVMax= 4.70D-05

 Cycle  10  Pass 1  IDiag  1:
 E= -246.999372733289     Delta-E=       -0.000000011405 Rises=F Damp=F
 DIIS: error= 2.57D-06 at cycle  10 NSaved=  10.
 NSaved=10 IEnMin=10 EnMin= -246.999372733289     IErMin=10 ErrMin= 2.57D-06
 ErrMax= 2.57D-06  0.00D+00 EMaxC= 1.00D-01 BMatC= 5.08D-10 BMatP= 4.27D-09
 IDIUse=1 WtCom= 1.00D+00 WtEn= 0.00D+00
 Coeff-Com:  0.242D-04-0.133D-03-0.691D-03-0.145D-02 0.255D-02 0.200D-01
 Coeff-Com: -0.655D-02-0.149D+00 0.883D-01 0.105D+01
 Coeff:      0.242D-04-0.133D-03-0.691D-03-0.145D-02 0.255D-02 0.200D-01
 Coeff:     -0.655D-02-0.149D+00 0.883D-01 0.105D+01
 Gap=     0.582 Goal=   None    Shift=    0.000
 RMSDP=4.75D-07 MaxDP=1.12D-05 DE=-1.14D-08 OVMax= 1.59D-05

 Cycle  11  Pass 1  IDiag  1:
 E= -246.999372734378     Delta-E=       -0.000000001089 Rises=F Damp=F
 DIIS: error= 6.92D-07 at cycle  11 NSaved=  11.
 NSaved=11 IEnMin=11 EnMin= -246.999372734378     IErMin=11 ErrMin= 6.92D-07
 ErrMax= 6.92D-07  0.00D+00 EMaxC= 1.00D-01 BMatC= 3.18D-11 BMatP= 5.08D-10
 IDIUse=1 WtCom= 1.00D+00 WtEn= 0.00D+00
 Coeff-Com: -0.635D-05 0.464D-04 0.257D-03 0.281D-03-0.175D-02-0.279D-02
 Coeff-Com:  0.697D-02 0.295D-01-0.117D+00-0.948D-01 0.118D+01
 Coeff:     -0.635D-05 0.464D-04 0.257D-03 0.281D-03-0.175D-02-0.279D-02
 Coeff:      0.697D-02 0.295D-01-0.117D+00-0.948D-01 0.118D+01
 Gap=     0.582 Goal=   None    Shift=    0.000
 RMSDP=1.37D-07 MaxDP=2.30D-06 DE=-1.09D-09 OVMax= 5.04D-06

 Cycle  12  Pass 1  IDiag  1:
 E= -246.999372734452     Delta-E=       -0.000000000074 Rises=F Damp=F
 DIIS: error= 1.22D-07 at cycle  12 NSaved=  12.
 NSaved=12 IEnMin=12 EnMin= -246.999372734452     IErMin=12 ErrMin= 1.22D-07
 ErrMax= 1.22D-07  0.00D+00 EMaxC= 1.00D-01 BMatC= 1.39D-12 BMatP= 3.18D-11
 IDIUse=1 WtCom= 1.00D+00 WtEn= 0.00D+00
 Coeff-Com: -0.685D-06 0.285D-05 0.167D-04 0.495D-04-0.716D-05-0.718D-03
 Coeff-Com: -0.581D-03 0.660D-02 0.464D-02-0.607D-01-0.572D-01 0.111D+01
 Coeff:     -0.685D-06 0.285D-05 0.167D-04 0.495D-04-0.716D-05-0.718D-03
 Coeff:     -0.581D-03 0.660D-02 0.464D-02-0.607D-01-0.572D-01 0.111D+01
 Gap=     0.582 Goal=   None    Shift=    0.000
 RMSDP=3.09D-08 MaxDP=4.63D-07 DE=-7.42D-11 OVMax= 9.48D-07

 Cycle  13  Pass 1  IDiag  1:
 E= -246.999372734456     Delta-E=       -0.000000000004 Rises=F Damp=F
 DIIS: error= 3.07D-08 at cycle  13 NSaved=  13.
 NSaved=13 IEnMin=13 EnMin= -246.999372734456     IErMin=13 ErrMin= 3.07D-08
 ErrMax= 3.07D-08  0.00D+00 EMaxC= 1.00D-01 BMatC= 9.79D-14 BMatP= 1.39D-12
 IDIUse=1 WtCom= 1.00D+00 WtEn= 0.00D+00
 Coeff-Com:  0.393D-06-0.302D-05-0.163D-04-0.172D-04 0.119D-03 0.167D-03
 Coeff-Com: -0.550D-03-0.168D-02 0.828D-02 0.223D-02-0.762D-01 0.235D-01
 Coeff-Com:  0.104D+01
 Coeff:      0.393D-06-0.302D-05-0.163D-04-0.172D-04 0.119D-03 0.167D-03
 Coeff:     -0.550D-03-0.168D-02 0.828D-02 0.223D-02-0.762D-01 0.235D-01
 Coeff:      0.104D+01
 Gap=     0.582 Goal=   None    Shift=    0.000
 RMSDP=8.77D-09 MaxDP=1.33D-07 DE=-4.21D-12 OVMax= 2.13D-07

 SCF Done:  E(RHF) =  -246.999372734     A.U. after   13 cycles
            NFock= 13  Conv=0.88D-08     -V/T= 2.0027
 KE= 2.463396939644D+02 PE=-9.380616896797D+02 EE= 2.650361604067D+02
 Leave Link  502 at Thu Sep 13 10:58:19 2018, MaxMem=    33554432 cpu:        32.7
 (Enter /usr/local/shared/gaussian/amd64/09-E01/g09/l601.exe)
 Copying SCF densities to generalized density rwf, IOpCl= 0 IROHF=0.

 **********************************************************************

            Population analysis using the SCF density.

 **********************************************************************

 Orbital symmetries:
 BldTbl:  Degeneracy threshold= 1.00D-02
       Occupied  (A) (A) (A) (A) (A) (A) (A) (A) (A) (A) (A) (A)
                 (A) (A) (A) (A) (A) (A) (A) (A)
       Virtual   (A) (A) (A) (A) (A) (A) (A) (A) (A) (A) (A) (A)
                 (A) (A) (A) (A) (A) (A) (A) (A) (A) (A) (A) (A)
                 (A) (A) (A) (A) (A) (A) (A) (A) (A) (A) (A) (A)
                 (A) (A) (A) (A) (A) (A) (A) (A) (A) (A) (A) (A)
                 (A) (A) (A) (A) (A) (A) (A) (A) (A) (A) (A) (A)
                 (A) (A) (A) (A) (A) (A) (A) (A) (A)
 The electronic state is 1-A.
 Alpha  occ. eigenvalues --  -20.51496 -15.58584 -11.34961 -11.27808 -11.23560
 Alpha  occ. eigenvalues --   -1.36199  -1.22379  -1.00497  -0.95429  -0.77935
 Alpha  occ. eigenvalues --   -0.67055  -0.66181  -0.63901  -0.58059  -0.57315
 Alpha  occ. eigenvalues --   -0.55877  -0.55329  -0.50690  -0.41138  -0.38090
 Alpha virt. eigenvalues --    0.20089   0.21328   0.23658   0.27016   0.29337
 Alpha virt. eigenvalues --    0.30926   0.32613   0.36457   0.39746   0.41922
 Alpha virt. eigenvalues --    0.49234   0.57952   0.68375   0.72631   0.73222
 Alpha virt. eigenvalues --    0.78550   0.82823   0.84891   0.86494   0.94794
 Alpha virt. eigenvalues --    0.98695   1.04082   1.06155   1.08283   1.10283
 Alpha virt. eigenvalues --    1.12687   1.14877   1.16284   1.17120   1.19510
 Alpha virt. eigenvalues --    1.22481   1.25236   1.30904   1.34334   1.37266
 Alpha virt. eigenvalues --    1.59412   1.62857   1.63198   1.67663   1.75937
 Alpha virt. eigenvalues --    1.82254   1.89240   2.05462   2.07002   2.11620
 Alpha virt. eigenvalues --    2.19991   2.22045   2.26587   2.30373   2.38895
 Alpha virt. eigenvalues --    2.39502   2.44222   2.45749   2.60132   2.60238
 Alpha virt. eigenvalues --    2.64370   2.79356   2.85601   2.87778   2.97259
 Alpha virt. eigenvalues --    2.97559   3.25227   3.35960   3.48256   4.31989
 Alpha virt. eigenvalues --    4.41447   4.60829   4.71554   4.90703
          Condensed to atoms (all electrons):
               1          2          3          4          5          6
     1  C    5.311142   0.372620   0.382104   0.372631   0.352714  -0.074556
     2  H    0.372620   0.509212  -0.017990  -0.026120  -0.027886   0.001238
     3  H    0.382104  -0.017990   0.457596  -0.017982  -0.032078   0.004451
     4  H    0.372631  -0.026120  -0.017982   0.509155  -0.027884   0.001233
     5  C    0.352714  -0.027886  -0.032078  -0.027884   4.117040   0.612920
     6  O   -0.074556   0.001238   0.004451   0.001233   0.612920   8.166561
     7  N   -0.118997   0.001973   0.004150   0.001973   0.291425  -0.096821
     8  H    0.005425  -0.000171  -0.000123  -0.000171  -0.013388   0.007314
     9  C   -0.006768  -0.001516   0.000075  -0.001520  -0.020908   0.002163
    10  H    0.000070   0.000044   0.000001   0.000044   0.001477  -0.000060
    11  H   -0.000608  -0.000334  -0.000003   0.001082  -0.001386   0.000025
    12  H   -0.000605   0.001079  -0.000003  -0.000328  -0.001380   0.000025
               7          8          9         10         11         12
     1  C   -0.118997   0.005425  -0.006768   0.000070  -0.000608  -0.000605
     2  H    0.001973  -0.000171  -0.001516   0.000044  -0.000334   0.001079
     3  H    0.004150  -0.000123   0.000075   0.000001  -0.000003  -0.000003
     4  H    0.001973  -0.000171  -0.001520   0.000044   0.001082  -0.000328
     5  C    0.291425  -0.013388  -0.020908   0.001477  -0.001386  -0.001380
     6  O   -0.096821   0.007314   0.002163  -0.000060   0.000025   0.000025
     7  N    7.314924   0.312033   0.201158  -0.031616  -0.048242  -0.048271
     8  H    0.312033   0.317402  -0.021876  -0.005078   0.001793   0.001789
     9  C    0.201158  -0.021876   4.920542   0.400810   0.400764   0.400754
    10  H   -0.031616  -0.005078   0.400810   0.497988  -0.025415  -0.025452
    11  H   -0.048242   0.001793   0.400764  -0.025415   0.537917  -0.040564
    12  H   -0.048271   0.001789   0.400754  -0.025452  -0.040564   0.538011
 Mulliken charges:
               1
     1  C   -0.595169
     2  H    0.187851
     3  H    0.219800
     4  H    0.187887
     5  C    0.749334
     6  O   -0.624491
     7  N   -0.783688
     8  H    0.395051
     9  C   -0.273678
    10  H    0.187187
    11  H    0.174970
    12  H    0.174945
 Sum of Mulliken charges =  -0.00000
 Mulliken charges with hydrogens summed into heavy atoms:
               1
     1  C    0.000370
     5  C    0.749334
     6  O   -0.624491
     7  N   -0.388637
     9  C    0.263425
 DipInt: DoE/N= T F RetVal/Mat= T F Init=T NMatP=  1 IDeriv=0 Min/MaxMlt=  0  4
 Entering OneElI...
 OneElI was handed    33532244 working-precision words.
 Multipole integrals L=0 to 4 MinM= 0 MaxM= 0.
 Requested accuracy = 0.1000D-12
 ShPair: Thresh= 1.00D-13 NBox=     0 BxSize= 0.00D+00 RnKept= 9.50D+00
         NSMCal=                  595 NSMKep=                 589
 PrsmSu:  NPrtUS=   1 ThrOK=F IAlg=1 NPAlg=1 LenDen=           0.
 Prism:   IPart=     0 DynPar=F LinDyn=F Incr=           5.
 PRISM was handed    33475616 working-precision words and   589 shell-pairs
 IPart=  0 NShTot=         589 NBatch=          38 AvBLen=        15.5
 PrSmSu:  NxtVal=              6.
 Electronic moments (au):
        -40.00000000          1.58002173          0.71344633         -0.00004308
       -273.76051265       -142.97826112        -34.40005232         -3.78913679
         -0.00027707         -0.00073030       -218.50127654       -136.45556987
         -0.00659837        121.35907015         75.57356399         -0.00727175
        -20.53776886        -25.51419379          0.01062924         -0.00872966
      -3871.10403180      -1262.92850675       -142.85705329       -254.68832066
          0.07031421        187.02343912          0.01344586         -0.08862447
          0.02443632       -749.16469878       -257.12919187       -170.15254023
         -0.10349196          0.03848207        -11.88181216
 Electronic spatial extent (au):  <R**2>=            451.1388
 DipInt: DoE/N= F T RetVal/Mat= T F Init=T NMatP=  1 IDeriv=0 Min/MaxMlt=  0  4
 Nuclear    moments (au):
         40.00000000         -0.00000000          0.00000000          0.00000000
        248.47728069        121.09691084         11.22585368          0.00000000
         -0.00023136          0.00015308        237.25296527        124.89518097
          0.00648569       -114.96485251        -69.19430541          0.00640845
         18.87908350         26.15895415         -0.01248167          0.00961357
       2937.78537094        799.96330877         31.50600665        213.49554827
         -0.10182096       -204.91344536         -0.02364729          0.10122597
         -0.03324597        512.31819706         81.06506619         72.90858105
          0.12163892         -0.04601545         19.71511891
 Total      moments (au):
         -0.00000000          1.58002173          0.71344633         -0.00004308
        -25.28323196        -21.88135028        -23.17419864         -3.78913679
         -0.00050843         -0.00057722         18.75168873        -11.56038890
         -0.00011268          6.39421765          6.37925858         -0.00086330
         -1.65868536          0.64476037         -0.00185243          0.00088391
       -933.31866086       -462.96519799       -111.35104664        -41.19277239
         -0.03150674        -17.89000624         -0.01020143          0.01260150
         -0.00880965       -236.84650172       -176.06412568        -97.24395918
          0.01814696         -0.00753338          7.83330675
 Traceless Quadrup. (au):
         -1.83697167          1.56491002          0.27206165         -3.78913679
         -0.00050843         -0.00057722
 Charge=             -0.0000 electrons
 Dipole moment (field-independent basis, Debye):
    X=              4.0160    Y=              1.8134    Z=             -0.0001  Tot=              4.4064
 Quadrupole moment (field-independent basis, Debye-Ang):
   XX=            -34.0068   YY=            -29.4312   ZZ=            -31.1701
   XY=             -5.0965   XZ=             -0.0007   YZ=             -0.0008
 Traceless Quadrupole moment (field-independent basis, Debye-Ang):
   XX=             -2.4708   YY=              2.1049   ZZ=              0.3659
   XY=             -5.0965   XZ=             -0.0007   YZ=             -0.0008
 Octapole moment (field-independent basis, Debye-Ang**2):
  XXX=             13.3467  YYY=             -8.2282  ZZZ=             -0.0001  XYY=              4.5512
  XXY=              4.5405  XXZ=             -0.0006  XZZ=             -1.1806  YZZ=              0.4589
  YYZ=             -0.0013  XYZ=              0.0006
 Hexadecapole moment (field-independent basis, Debye-Ang**3):
 XXXX=           -351.5325 YYYY=           -174.3749 ZZZZ=            -41.9401 XXXY=            -15.5152
 XXXZ=             -0.0119 YYYX=             -6.7382 YYYZ=             -0.0038 ZZZX=              0.0047
 ZZZY=             -0.0033 XXYY=            -89.2077 XXZZ=            -66.3142 YYZZ=            -36.6267
 XXYZ=              0.0068 YYXZ=             -0.0028 ZZXY=              2.9504
 N-N= 1.796864625742D+02 E-N=-9.380616895228D+02  KE= 2.463396939644D+02
 Entering OneElI...
 OneElI was handed    33535860 working-precision words.
 Calculate electrostatic properties
    NBasis =    89  MinDer = 0  MaxDer = 0
    NGrid  =    12  NMatD  =   1
 Requested accuracy = 0.1000D-12
 ShPair: Thresh= 1.00D-13 NBox=     0 BxSize= 0.00D+00 RnKept= 9.50D+00
         NSMCal=                  595 NSMKep=                 580
 PrsmSu:  NPrtUS=   8 ThrOK=T IAlg=1 NPAlg=1 LenDen=           0.
 Prism:   IPart=     0 DynPar=F LinDyn=F Incr=           8.
 PRISM was handed     4166343 working-precision words and   580 shell-pairs
 PRISM was handed     4166343 working-precision words and   580 shell-pairs
 PRISM was handed     4166343 working-precision words and   580 shell-pairs
 PRISM was handed     4166343 working-precision words and   580 shell-pairs
 PRISM was handed     4166343 working-precision words and   580 shell-pairs
 PRISM was handed     4166343 working-precision words and   580 shell-pairs
 PRISM was handed     4166343 working-precision words and   580 shell-pairs
 PRISM was handed     4166343 working-precision words and   580 shell-pairs
 IPart=  5 NShTot=         804 NBatch=          67 AvBLen=        12.0
 IPart=  0 NShTot=        1068 NBatch=          89 AvBLen=        12.0
 IPart=  1 NShTot=         984 NBatch=          82 AvBLen=        12.0
 IPart=  7 NShTot=         660 NBatch=          55 AvBLen=        12.0
 IPart=  4 NShTot=         852 NBatch=          71 AvBLen=        12.0
 IPart=  6 NShTot=         768 NBatch=          64 AvBLen=        12.0
 IPart=  2 NShTot=         936 NBatch=          78 AvBLen=        12.0
 IPart=  3 NShTot=         888 NBatch=          74 AvBLen=        12.0
 PrSmSu:  NxtVal=             65.
 --------------------------------------------------------
       Center         ----      EFG at Nuclei      ----
                      3XX-RR        3YY-RR        3ZZ-RR
 --------------------------------------------------------
     1   Atom        0.060279     -0.055403     -0.004876
     2   Atom        0.062788      0.076922     -0.139710
     3   Atom       -0.271155      0.117072      0.154082
     4   Atom        0.063295      0.076966     -0.140261
     5   Atom        0.211128      0.352226     -0.563354
     6   Atom       -0.089149      0.804917     -0.715767
     7   Atom       -0.557994     -0.504922      1.062916
     8   Atom        0.155948     -0.391548      0.235599
     9   Atom       -0.174462      0.045938      0.128524
    10   Atom       -0.110560     -0.050572      0.161131
    11   Atom        0.134046      0.004336     -0.138382
    12   Atom        0.133961      0.005208     -0.139170
 --------------------------------------------------------
                        XY            XZ            YZ
 --------------------------------------------------------
     1   Atom        0.014824     -0.000028     -0.000015
     2   Atom       -0.074113     -0.164121     -0.139150
     3   Atom        0.113997      0.000310     -0.000081
     4   Atom       -0.073870      0.163807      0.139224
     5   Atom        0.087336      0.000021      0.000001
     6   Atom       -1.286345     -0.000069      0.000073
     7   Atom       -0.031250     -0.000055      0.000143
     8   Atom        0.023130     -0.000002      0.000078
     9   Atom       -0.163855      0.000048      0.000014
    10   Atom        0.214445      0.000429     -0.000377
    11   Atom       -0.027855      0.029437      0.208273
    12   Atom       -0.028083     -0.029890     -0.207904
 --------------------------------------------------------


 ---------------------------------------------------------------------------------
              Nuclear Quadrupole Coupling Constant in Principal Axis System
 ---------------------------------------------------------------------------------

       Atom             a.u.   MegaHertz   Gauss  10(-4) cm-1        Axes

              Baa    -0.5725     2.749     0.981     0.917  0.9075  0.4200 -0.0000
     7 N(14)  Bbb    -0.4905     2.356     0.841     0.786 -0.4200  0.9075 -0.0001
              Bcc     1.0629    -5.105    -1.822    -1.703 -0.0000  0.0001  1.0000
 

 ---------------------------------------------------------------------------------

 No NMR shielding tensors so no spin-rotation constants.
 Leave Link  601 at Thu Sep 13 10:58:21 2018, MaxMem=    33554432 cpu:         3.3
 (Enter /usr/local/shared/gaussian/amd64/09-E01/g09/l602.exe)
 FitSet:  NAtFit=    12 NAtPot=    12 NAtFrz=     0 MDM=    16 TotChg=   0.00000
 Merz-Kollman atomic radii used.
 Atom Element Radius
    1     6    1.50
    2     1    1.20
    3     1    1.20
    4     1    1.20
    5     6    1.50
    6     8    1.40
    7     7    1.50
    8     1    1.20
    9     6    1.50
   10     1    1.20
   11     1    1.20
   12     1    1.20
 Generate VDW surfaces: Layer=10 Dens=17 Start= 1.400 Inc= 0.126

 **********************************************************************

            Electrostatic Properties Using The SCF Density

 **********************************************************************

       Atomic Center    1 is at  -0.710668  1.357239  0.000019
       Atomic Center    2 is at  -0.224968  1.782389  0.883519
       Atomic Center    3 is at  -1.765138  1.629849  0.000779
       Atomic Center    4 is at  -0.226348  1.782249 -0.884321
       Atomic Center    5 is at  -0.623808 -0.154661  0.000009
       Atomic Center    6 is at  -1.619739 -0.881021 -0.000011
       Atomic Center    7 is at   0.641051 -0.678842 -0.000001
       Atomic Center    8 is at   0.665271 -1.691062  0.000129
       Atomic Center    9 is at   1.889112  0.060048 -0.000001
       Atomic Center   10 is at   2.708651 -0.659652 -0.001371
       Atomic Center   11 is at   1.991992  0.691198 -0.888481
       Atomic Center   12 is at   1.993272  0.689328  0.889679
      ESP Fit Center   13 is at  -1.385595  1.111586  1.973374
      ESP Fit Center   14 is at  -1.260873  0.895562  1.973374
      ESP Fit Center   15 is at  -1.069789  0.735223  1.973374
      ESP Fit Center   16 is at  -0.835389  0.649908  1.973374
      ESP Fit Center   17 is at  -1.621032  1.601170  1.876648
      ESP Fit Center   18 is at  -1.653146  1.357239  1.876648
      ESP Fit Center   19 is at  -1.621032  1.113308  1.876648
      ESP Fit Center   20 is at  -1.526878  0.886000  1.876648
      ESP Fit Center   21 is at  -1.377100  0.690806  1.876648
      ESP Fit Center   22 is at  -1.699454  1.952172  1.754543
      ESP Fit Center   23 is at  -1.804230  1.725703  1.754543
      ESP Fit Center   24 is at  -1.857872  1.482005  1.754543
      ESP Fit Center   25 is at  -1.857872  1.232473  1.754543
      ESP Fit Center   26 is at  -1.804230  0.988775  1.754543
      ESP Fit Center   27 is at  -1.699454  0.762306  1.754543
      ESP Fit Center   28 is at  -1.548444  0.563655  1.754543
      ESP Fit Center   29 is at  -1.708222  2.266630  1.608712
      ESP Fit Center   30 is at  -2.037538  1.109204  1.608712
      ESP Fit Center   31 is at  -1.969369  0.869616  1.608712
      ESP Fit Center   32 is at  -1.858337  0.646632  1.608712
      ESP Fit Center   33 is at  -1.676718  2.540436  1.441126
      ESP Fit Center   34 is at  -2.115922  0.758516  1.441126
      ESP Fit Center   35 is at  -2.001683  0.540851  1.441126
      ESP Fit Center   36 is at  -1.480874  2.855299  1.254052
      ESP Fit Center   37 is at  -2.179599  0.532835  1.254052
      ESP Fit Center   38 is at  -1.319698  3.070885  1.050019
      ESP Fit Center   39 is at  -1.547367  2.971994  1.050019
      ESP Fit Center   40 is at  -1.139745  3.237148  0.831787
      ESP Fit Center   41 is at  -1.376619  3.166844  0.831787
      ESP Fit Center   42 is at  -0.772621  3.368063  0.602306
      ESP Fit Center   43 is at  -1.019258  3.345209  0.602306
      ESP Fit Center   44 is at  -1.261217  3.292219  0.602306
      ESP Fit Center   45 is at  -1.494830  3.209896  0.602306
      ESP Fit Center   46 is at  -0.405320  3.402669  0.364680
      ESP Fit Center   47 is at  -0.649383  3.424427  0.364680
      ESP Fit Center   48 is at  -0.894306  3.417166  0.364680
      ESP Fit Center   49 is at  -1.136651  3.380988  0.364680
      ESP Fit Center   50 is at  -1.373017  3.316401  0.364680
      ESP Fit Center   51 is at   1.254583  2.087225  0.122123
      ESP Fit Center   52 is at   0.301481  3.193171  0.122123
      ESP Fit Center   53 is at   0.077235  3.299995  0.122123
      ESP Fit Center   54 is at  -0.158071  3.379547  0.122123
      ESP Fit Center   55 is at  -0.401134  3.430710  0.122123
      ESP Fit Center   56 is at  -0.648543  3.452765  0.122123
      ESP Fit Center   57 is at  -0.896824  3.445405  0.122123
      ESP Fit Center   58 is at  -1.142491  3.408731  0.122123
      ESP Fit Center   59 is at  -1.382097  3.343259  0.122123
      ESP Fit Center   60 is at   1.254583  2.087225 -0.122085
      ESP Fit Center   61 is at   0.301481  3.193171 -0.122085
      ESP Fit Center   62 is at   0.077235  3.299995 -0.122085
      ESP Fit Center   63 is at  -0.158071  3.379547 -0.122085
      ESP Fit Center   64 is at  -0.401134  3.430710 -0.122085
      ESP Fit Center   65 is at  -0.648543  3.452765 -0.122085
      ESP Fit Center   66 is at  -0.896824  3.445405 -0.122085
      ESP Fit Center   67 is at  -1.142491  3.408731 -0.122085
      ESP Fit Center   68 is at  -1.382097  3.343259 -0.122085
      ESP Fit Center   69 is at  -0.405320  3.402669 -0.364642
      ESP Fit Center   70 is at  -0.649383  3.424427 -0.364642
      ESP Fit Center   71 is at  -0.894306  3.417166 -0.364642
      ESP Fit Center   72 is at  -1.136651  3.380988 -0.364642
      ESP Fit Center   73 is at  -1.373017  3.316401 -0.364642
      ESP Fit Center   74 is at  -0.772621  3.368063 -0.602268
      ESP Fit Center   75 is at  -1.019258  3.345209 -0.602268
      ESP Fit Center   76 is at  -1.261217  3.292219 -0.602268
      ESP Fit Center   77 is at  -1.494830  3.209896 -0.602268
      ESP Fit Center   78 is at  -1.139745  3.237148 -0.831749
      ESP Fit Center   79 is at  -1.376619  3.166844 -0.831749
      ESP Fit Center   80 is at  -1.319698  3.070885 -1.049981
      ESP Fit Center   81 is at  -1.547367  2.971994 -1.049981
      ESP Fit Center   82 is at  -1.480874  2.855299 -1.254014
      ESP Fit Center   83 is at  -2.179599  0.532835 -1.254014
      ESP Fit Center   84 is at  -1.676718  2.540436 -1.441088
      ESP Fit Center   85 is at  -2.115922  0.758516 -1.441088
      ESP Fit Center   86 is at  -2.001683  0.540851 -1.441088
      ESP Fit Center   87 is at  -1.708222  2.266630 -1.608674
      ESP Fit Center   88 is at  -2.037538  1.109204 -1.608674
      ESP Fit Center   89 is at  -1.969369  0.869616 -1.608674
      ESP Fit Center   90 is at  -1.858337  0.646632 -1.608674
      ESP Fit Center   91 is at  -1.699454  1.952172 -1.754505
      ESP Fit Center   92 is at  -1.804230  1.725703 -1.754505
      ESP Fit Center   93 is at  -1.857872  1.482005 -1.754505
      ESP Fit Center   94 is at  -1.857872  1.232473 -1.754505
      ESP Fit Center   95 is at  -1.804230  0.988775 -1.754505
      ESP Fit Center   96 is at  -1.699454  0.762306 -1.754505
      ESP Fit Center   97 is at  -1.548444  0.563655 -1.754505
      ESP Fit Center   98 is at  -1.621032  1.601170 -1.876610
      ESP Fit Center   99 is at  -1.653146  1.357239 -1.876610
      ESP Fit Center  100 is at  -1.621032  1.113308 -1.876610
      ESP Fit Center  101 is at  -1.526878  0.886000 -1.876610
      ESP Fit Center  102 is at  -1.377100  0.690806 -1.876610
      ESP Fit Center  103 is at  -1.385595  1.111586 -1.973336
      ESP Fit Center  104 is at  -1.260873  0.895562 -1.973336
      ESP Fit Center  105 is at  -1.069789  0.735223 -1.973336
      ESP Fit Center  106 is at  -0.835389  0.649908 -1.973336
      ESP Fit Center  107 is at  -0.224968  1.782389  2.563519
      ESP Fit Center  108 is at   0.025423  1.782389  2.544755
      ESP Fit Center  109 is at  -0.099772  1.999234  2.544755
      ESP Fit Center  110 is at  -0.350163  1.999234  2.544755
      ESP Fit Center  111 is at  -0.475359  1.782389  2.544755
      ESP Fit Center  112 is at  -0.350163  1.565544  2.544755
      ESP Fit Center  113 is at  -0.099772  1.565544  2.544755
      ESP Fit Center  114 is at   0.270221  1.782389  2.488881
      ESP Fit Center  115 is at   0.203878  2.029983  2.488881
      ESP Fit Center  116 is at   0.022627  2.211235  2.488881
      ESP Fit Center  117 is at  -0.224968  2.277578  2.488881
      ESP Fit Center  118 is at  -0.472562  2.211235  2.488881
      ESP Fit Center  119 is at  -0.653814  2.029983  2.488881
      ESP Fit Center  120 is at  -0.720156  1.782389  2.488881
      ESP Fit Center  121 is at  -0.653814  1.534794  2.488881
      ESP Fit Center  122 is at  -0.472562  1.353543  2.488881
      ESP Fit Center  123 is at  -0.224968  1.287200  2.488881
      ESP Fit Center  124 is at   0.022627  1.353543  2.488881
      ESP Fit Center  125 is at   0.203878  1.534794  2.488881
      ESP Fit Center  126 is at   0.503957  1.782389  2.397147
      ESP Fit Center  127 is at   0.459998  2.031696  2.397147
      ESP Fit Center  128 is at   0.333421  2.250933  2.397147
      ESP Fit Center  129 is at   0.139495  2.413656  2.397147
      ESP Fit Center  130 is at  -0.098391  2.500240  2.397147
      ESP Fit Center  131 is at  -0.351544  2.500240  2.397147
      ESP Fit Center  132 is at  -0.589430  2.413656  2.397147
      ESP Fit Center  133 is at  -0.783356  2.250933  2.397147
      ESP Fit Center  134 is at  -0.909933  2.031696  2.397147
      ESP Fit Center  135 is at  -0.953892  1.782389  2.397147
      ESP Fit Center  136 is at  -0.909933  1.533082  2.397147
      ESP Fit Center  137 is at  -0.783356  1.313845  2.397147
      ESP Fit Center  138 is at  -0.589430  1.151122  2.397147
      ESP Fit Center  139 is at  -0.351544  1.064538  2.397147
      ESP Fit Center  140 is at  -0.098391  1.064538  2.397147
      ESP Fit Center  141 is at   0.139495  1.151122  2.397147
      ESP Fit Center  142 is at   0.333421  1.313845  2.397147
      ESP Fit Center  143 is at   0.459998  1.533082  2.397147
      ESP Fit Center  144 is at   0.721410  1.782389  2.271600
      ESP Fit Center  145 is at   0.689163  2.027329  2.271600
      ESP Fit Center  146 is at   0.594620  2.255578  2.271600
      ESP Fit Center  147 is at   0.444223  2.451579  2.271600
      ESP Fit Center  148 is at   0.248221  2.601976  2.271600
      ESP Fit Center  149 is at   0.019973  2.696520  2.271600
      ESP Fit Center  150 is at  -0.224968  2.728767  2.271600
      ESP Fit Center  151 is at  -0.469908  2.696520  2.271600
      ESP Fit Center  152 is at  -0.698156  2.601976  2.271600
      ESP Fit Center  153 is at  -0.894158  2.451579  2.271600
      ESP Fit Center  154 is at  -1.044555  2.255578  2.271600
      ESP Fit Center  155 is at  -1.139098  2.027329  2.271600
      ESP Fit Center  156 is at  -1.171345  1.782389  2.271600
      ESP Fit Center  157 is at  -1.139098  1.537448  2.271600
      ESP Fit Center  158 is at  -1.044555  1.309200  2.271600
      ESP Fit Center  159 is at  -0.894158  1.113199  2.271600
      ESP Fit Center  160 is at  -0.698156  0.962802  2.271600
      ESP Fit Center  161 is at  -0.469908  0.868258  2.271600
      ESP Fit Center  162 is at  -0.224968  0.836011  2.271600
      ESP Fit Center  163 is at   0.019973  0.868258  2.271600
      ESP Fit Center  164 is at   0.248221  0.962802  2.271600
      ESP Fit Center  165 is at   0.444223  1.113199  2.271600
      ESP Fit Center  166 is at   0.594620  1.309200  2.271600
      ESP Fit Center  167 is at   0.689163  1.537448  2.271600
      ESP Fit Center  168 is at   0.917723  1.782389  2.115046
      ESP Fit Center  169 is at   0.891007  2.028033  2.115046
      ESP Fit Center  170 is at   0.812110  2.262192  2.115046
      ESP Fit Center  171 is at   0.684720  2.473915  2.115046
      ESP Fit Center  172 is at   0.514794  2.653304  2.115046
      ESP Fit Center  173 is at   0.310278  2.791969  2.115046
      ESP Fit Center  174 is at   0.080734  2.883428  2.115046
      ESP Fit Center  175 is at  -0.163104  2.923403  2.115046
      ESP Fit Center  176 is at  -0.409834  2.910026  2.115046
      ESP Fit Center  177 is at  -0.647921  2.843921  2.115046
      ESP Fit Center  178 is at  -0.866230  2.728181  2.115046
      ESP Fit Center  179 is at  -1.054555  2.568216  2.115046
      ESP Fit Center  180 is at  -1.204090  2.371507  2.115046
      ESP Fit Center  181 is at  -1.307842  2.147252  2.115046
      ESP Fit Center  182 is at  -1.360959  1.905935  2.115046
      ESP Fit Center  183 is at  -1.360959  1.658842  2.115046
      ESP Fit Center  184 is at  -1.307842  1.417526  2.115046
      ESP Fit Center  185 is at  -1.204090  1.193271  2.115046
      ESP Fit Center  186 is at  -1.054555  0.996561  2.115046
      ESP Fit Center  187 is at  -0.866230  0.836597  2.115046
      ESP Fit Center  188 is at  -0.647921  0.720856  2.115046
      ESP Fit Center  189 is at  -0.409834  0.654752  2.115046
      ESP Fit Center  190 is at  -0.163104  0.641374  2.115046
      ESP Fit Center  191 is at   0.080734  0.681350  2.115046
      ESP Fit Center  192 is at   0.310278  0.772808  2.115046
      ESP Fit Center  193 is at   0.514794  0.911474  2.115046
      ESP Fit Center  194 is at   0.684720  1.090862  2.115046
      ESP Fit Center  195 is at   0.812110  1.302586  2.115046
      ESP Fit Center  196 is at   0.891007  1.536744  2.115046
      ESP Fit Center  197 is at   1.088509  1.782389  1.930982
      ESP Fit Center  198 is at   1.064773  2.030966  1.930982
      ESP Fit Center  199 is at   0.994422  2.270559  1.930982
      ESP Fit Center  200 is at   0.880000  2.492508  1.930982
      ESP Fit Center  201 is at   0.725640  2.688792  1.930982
      ESP Fit Center  202 is at   0.536924  2.852316  1.930982
      ESP Fit Center  203 is at   0.320670  2.977169  1.930982
      ESP Fit Center  204 is at   0.084696  3.058841  1.930982
      ESP Fit Center  205 is at  -0.162470  3.094378  1.930982
      ESP Fit Center  206 is at  -0.411895  3.082496  1.930982
      ESP Fit Center  207 is at  -0.654564  3.023626  1.930982
      ESP Fit Center  208 is at  -0.881706  2.919893  1.930982
      ESP Fit Center  209 is at  -1.085112  2.775048  1.930982
      ESP Fit Center  210 is at  -1.257430  2.594326  1.930982
      ESP Fit Center  211 is at  -1.392432  2.384259  1.930982
      ESP Fit Center  212 is at  -1.485239  2.152438  1.930982
      ESP Fit Center  213 is at  -1.532497  1.907243  1.930982
      ESP Fit Center  214 is at  -1.532497  1.657535  1.930982
      ESP Fit Center  215 is at   0.084696  0.505937  1.930982
      ESP Fit Center  216 is at   0.320670  0.587608  1.930982
      ESP Fit Center  217 is at   0.536924  0.712462  1.930982
      ESP Fit Center  218 is at   1.209027  2.028272  1.723519
      ESP Fit Center  219 is at   1.146846  2.267081  1.723519
      ESP Fit Center  220 is at   1.045201  2.491947  1.723519
      ESP Fit Center  221 is at   0.907014  2.696400  1.723519
      ESP Fit Center  222 is at   0.736263  2.874559  1.723519
      ESP Fit Center  223 is at   0.537859  3.021298  1.723519
      ESP Fit Center  224 is at   0.317510  3.132396  1.723519
      ESP Fit Center  225 is at   0.081555  3.204656  1.723519
      ESP Fit Center  226 is at  -0.163219  3.236001  1.723519
      ESP Fit Center  227 is at  -0.409769  3.225527  1.723519
      ESP Fit Center  228 is at  -0.651002  3.173538  1.723519
      ESP Fit Center  229 is at  -0.879979  3.081527  1.723519
      ESP Fit Center  230 is at  -1.090113  2.952142  1.723519
      ESP Fit Center  231 is at  -1.275358  2.789106  1.723519
      ESP Fit Center  232 is at  -1.430385  2.597109  1.723519
      ESP Fit Center  233 is at  -1.550735  2.381673  1.723519
      ESP Fit Center  234 is at  -1.632944  2.148997  1.723519
      ESP Fit Center  235 is at   0.537859  0.543480  1.723519
      ESP Fit Center  236 is at   1.262359  2.265651  1.497292
      ESP Fit Center  237 is at   1.168449  2.492370  1.497292
      ESP Fit Center  238 is at   1.040228  2.701607  1.497292
      ESP Fit Center  239 is at   0.880854  2.888210  1.497292
      ESP Fit Center  240 is at   0.694251  3.047585  1.497292
      ESP Fit Center  241 is at   0.485014  3.175805  1.497292
      ESP Fit Center  242 is at   0.258294  3.269716  1.497292
      ESP Fit Center  243 is at   0.019675  3.327003  1.497292
      ESP Fit Center  244 is at  -0.224968  3.346257  1.497292
      ESP Fit Center  245 is at  -0.469610  3.327003  1.497292
      ESP Fit Center  246 is at  -0.708229  3.269716  1.497292
      ESP Fit Center  247 is at  -0.934949  3.175805  1.497292
      ESP Fit Center  248 is at  -1.144186  3.047585  1.497292
      ESP Fit Center  249 is at  -1.330789  2.888210  1.497292
      ESP Fit Center  250 is at  -1.490163  2.701607  1.497292
      ESP Fit Center  251 is at   1.336580  2.276571  1.257354
      ESP Fit Center  252 is at   1.242843  2.509148  1.257354
      ESP Fit Center  253 is at   1.114702  2.724691  1.257354
      ESP Fit Center  254 is at   0.955160  2.918147  1.257354
      ESP Fit Center  255 is at   0.767956  3.084982  1.257354
      ESP Fit Center  256 is at   0.557480  3.221286  1.257354
      ESP Fit Center  257 is at   0.328663  3.323862  1.257354
      ESP Fit Center  258 is at   0.086870  3.390308  1.257354
      ESP Fit Center  259 is at  -0.162232  3.419066  1.257354
      ESP Fit Center  260 is at  -0.412805  3.409461  1.257354
      ESP Fit Center  261 is at  -0.658975  3.361719  1.257354
      ESP Fit Center  262 is at  -0.894972  3.276959  1.257354
      ESP Fit Center  263 is at  -1.115265  3.157168  1.257354
      ESP Fit Center  264 is at  -1.314690  3.005153  1.257354
      ESP Fit Center  265 is at   1.375906  2.276193  1.009066
      ESP Fit Center  266 is at   1.284428  2.509275  1.009066
      ESP Fit Center  267 is at   1.159232  2.726120  1.009066
      ESP Fit Center  268 is at   1.003116  2.921884  1.009066
      ESP Fit Center  269 is at   0.819566  3.092193  1.009066
      ESP Fit Center  270 is at   0.612684  3.233243  1.009066
      ESP Fit Center  271 is at   0.387089  3.341884  1.009066
      ESP Fit Center  272 is at   0.147822  3.415688  1.009066
      ESP Fit Center  273 is at  -0.099772  3.453007  1.009066
      ESP Fit Center  274 is at  -0.350163  3.453007  1.009066
      ESP Fit Center  275 is at  -0.597757  3.415688  1.009066
      ESP Fit Center  276 is at  -0.837024  3.341884  1.009066
      ESP Fit Center  277 is at  -1.062619  3.233243  1.009066
      ESP Fit Center  278 is at   1.375906  2.276193  0.757972
      ESP Fit Center  279 is at   1.284428  2.509275  0.757972
      ESP Fit Center  280 is at   1.159232  2.726120  0.757972
      ESP Fit Center  281 is at   1.003116  2.921884  0.757972
      ESP Fit Center  282 is at   0.819566  3.092193  0.757972
      ESP Fit Center  283 is at   0.612684  3.233243  0.757972
      ESP Fit Center  284 is at   0.387089  3.341884  0.757972
      ESP Fit Center  285 is at   0.147822  3.415688  0.757972
      ESP Fit Center  286 is at  -0.099772  3.453007  0.757972
      ESP Fit Center  287 is at  -0.350163  3.453007  0.757972
      ESP Fit Center  288 is at  -0.597757  3.415688  0.757972
      ESP Fit Center  289 is at  -0.837024  3.341884  0.757972
      ESP Fit Center  290 is at   1.336580  2.276571  0.509684
      ESP Fit Center  291 is at   1.242843  2.509148  0.509684
      ESP Fit Center  292 is at   1.114702  2.724691  0.509684
      ESP Fit Center  293 is at   0.955160  2.918147  0.509684
      ESP Fit Center  294 is at   0.767956  3.084982  0.509684
      ESP Fit Center  295 is at   0.557480  3.221286  0.509684
      ESP Fit Center  296 is at   0.328663  3.323862  0.509684
      ESP Fit Center  297 is at   0.086870  3.390308  0.509684
      ESP Fit Center  298 is at  -0.162232  3.419066  0.509684
      ESP Fit Center  299 is at  -0.412805  3.409461  0.509684
      ESP Fit Center  300 is at   1.262359  2.265651  0.269746
      ESP Fit Center  301 is at   1.168449  2.492370  0.269746
      ESP Fit Center  302 is at   1.040228  2.701607  0.269746
      ESP Fit Center  303 is at   0.880854  2.888210  0.269746
      ESP Fit Center  304 is at   0.694251  3.047585  0.269746
      ESP Fit Center  305 is at   0.485014  3.175805  0.269746
      ESP Fit Center  306 is at   0.258294  3.269716  0.269746
      ESP Fit Center  307 is at   0.019675  3.327003  0.269746
      ESP Fit Center  308 is at   0.907014  2.696400  0.043519
      ESP Fit Center  309 is at  -2.015529  1.629849  1.662015
      ESP Fit Center  310 is at  -2.012732  2.058695  1.606141
      ESP Fit Center  311 is at  -2.193984  1.877444  1.606141
      ESP Fit Center  312 is at  -2.260326  1.629849  1.606141
      ESP Fit Center  313 is at  -2.193984  1.382255  1.606141
      ESP Fit Center  314 is at  -1.891714  2.347700  1.514407
      ESP Fit Center  315 is at  -2.129600  2.261117  1.514407
      ESP Fit Center  316 is at  -2.323526  2.098393  1.514407
      ESP Fit Center  317 is at  -2.450103  1.879156  1.514407
      ESP Fit Center  318 is at  -2.494062  1.629849  1.514407
      ESP Fit Center  319 is at  -2.450103  1.380543  1.514407
      ESP Fit Center  320 is at  -2.323526  1.161306  1.514407
      ESP Fit Center  321 is at  -2.129600  0.998582  1.514407
      ESP Fit Center  322 is at  -1.765138  2.576227  1.388860
      ESP Fit Center  323 is at  -2.010078  2.543980  1.388860
      ESP Fit Center  324 is at  -2.238326  2.449437  1.388860
      ESP Fit Center  325 is at  -2.434328  2.299040  1.388860
      ESP Fit Center  326 is at  -2.584725  2.103038  1.388860
      ESP Fit Center  327 is at  -2.679268  1.874790  1.388860
      ESP Fit Center  328 is at  -2.711515  1.629849  1.388860
      ESP Fit Center  329 is at  -2.679268  1.384909  1.388860
      ESP Fit Center  330 is at  -2.584725  1.156661  1.388860
      ESP Fit Center  331 is at  -2.434328  0.960659  1.388860
      ESP Fit Center  332 is at  -2.238326  0.810262  1.388860
      ESP Fit Center  333 is at  -1.703274  2.770864  1.232306
      ESP Fit Center  334 is at  -1.950004  2.757486  1.232306
      ESP Fit Center  335 is at  -2.188091  2.691382  1.232306
      ESP Fit Center  336 is at  -2.406401  2.575642  1.232306
      ESP Fit Center  337 is at  -2.594726  2.415677  1.232306
      ESP Fit Center  338 is at  -2.744260  2.218968  1.232306
      ESP Fit Center  339 is at  -2.848012  1.994712  1.232306
      ESP Fit Center  340 is at  -2.901129  1.753396  1.232306
      ESP Fit Center  341 is at  -2.901129  1.506303  1.232306
      ESP Fit Center  342 is at  -2.848012  1.264987  1.232306
      ESP Fit Center  343 is at  -2.744260  1.040731  1.232306
      ESP Fit Center  344 is at  -2.594726  0.844022  1.232306
      ESP Fit Center  345 is at  -2.406401  0.684057  1.232306
      ESP Fit Center  346 is at  -1.702640  2.941839  1.048242
      ESP Fit Center  347 is at  -1.952065  2.929957  1.048242
      ESP Fit Center  348 is at  -2.194734  2.871086  1.048242
      ESP Fit Center  349 is at  -2.421876  2.767354  1.048242
      ESP Fit Center  350 is at  -2.625282  2.622509  1.048242
      ESP Fit Center  351 is at  -2.797600  2.441787  1.048242
      ESP Fit Center  352 is at  -2.932602  2.231719  1.048242
      ESP Fit Center  353 is at  -3.025409  1.999899  1.048242
      ESP Fit Center  354 is at  -3.072667  1.754703  1.048242
      ESP Fit Center  355 is at  -3.072667  1.504996  1.048242
      ESP Fit Center  356 is at  -3.025409  1.259800  1.048242
      ESP Fit Center  357 is at  -2.932602  1.027980  1.048242
      ESP Fit Center  358 is at  -2.797600  0.817912  1.048242
      ESP Fit Center  359 is at  -2.625282  0.637190  1.048242
      ESP Fit Center  360 is at  -1.703389  3.083461  0.840779
      ESP Fit Center  361 is at  -1.949939  3.072988  0.840779
      ESP Fit Center  362 is at  -2.191172  3.020998  0.840779
      ESP Fit Center  363 is at  -2.420149  2.928988  0.840779
      ESP Fit Center  364 is at  -2.630283  2.799603  0.840779
      ESP Fit Center  365 is at  -2.815528  2.636567  0.840779
      ESP Fit Center  366 is at  -2.970555  2.444569  0.840779
      ESP Fit Center  367 is at  -3.090905  2.229134  0.840779
      ESP Fit Center  368 is at  -3.173114  1.996458  0.840779
      ESP Fit Center  369 is at  -3.214819  1.753236  0.840779
      ESP Fit Center  370 is at  -3.214819  1.506463  0.840779
      ESP Fit Center  371 is at  -3.173114  1.263241  0.840779
      ESP Fit Center  372 is at  -3.090905  1.030565  0.840779
      ESP Fit Center  373 is at  -2.970555  0.815129  0.840779
      ESP Fit Center  374 is at  -2.815528  0.623132  0.840779
      ESP Fit Center  375 is at  -1.765138  3.193717  0.614552
      ESP Fit Center  376 is at  -2.009780  3.174464  0.614552
      ESP Fit Center  377 is at  -2.248399  3.117176  0.614552
      ESP Fit Center  378 is at  -2.475119  3.023266  0.614552
      ESP Fit Center  379 is at  -2.684356  2.895045  0.614552
      ESP Fit Center  380 is at  -2.870959  2.735671  0.614552
      ESP Fit Center  381 is at  -3.030333  2.549068  0.614552
      ESP Fit Center  382 is at  -3.158554  2.339831  0.614552
      ESP Fit Center  383 is at  -3.252464  2.113111  0.614552
      ESP Fit Center  384 is at  -3.309752  1.874492  0.614552
      ESP Fit Center  385 is at  -3.329005  1.629849  0.614552
      ESP Fit Center  386 is at  -3.309752  1.385207  0.614552
      ESP Fit Center  387 is at  -3.252464  1.146588  0.614552
      ESP Fit Center  388 is at  -3.158554  0.919868  0.614552
      ESP Fit Center  389 is at  -3.030333  0.710631  0.614552
      ESP Fit Center  390 is at  -2.870959  0.524028  0.614552
      ESP Fit Center  391 is at  -1.702402  3.266526  0.374614
      ESP Fit Center  392 is at  -1.952975  3.256922  0.374614
      ESP Fit Center  393 is at  -2.199145  3.209180  0.374614
      ESP Fit Center  394 is at  -2.435142  3.124420  0.374614
      ESP Fit Center  395 is at  -2.655435  3.004628  0.374614
      ESP Fit Center  396 is at  -2.854861  2.852613  0.374614
      ESP Fit Center  397 is at  -3.028743  2.671938  0.374614
      ESP Fit Center  398 is at  -3.173009  2.466836  0.374614
      ESP Fit Center  399 is at  -3.284274  2.242117  0.374614
      ESP Fit Center  400 is at  -3.359933  2.003046  0.374614
      ESP Fit Center  401 is at  -3.398211  1.755228  0.374614
      ESP Fit Center  402 is at  -3.398211  1.504471  0.374614
      ESP Fit Center  403 is at  -3.359933  1.256653  0.374614
      ESP Fit Center  404 is at  -3.284274  1.017582  0.374614
      ESP Fit Center  405 is at  -3.173009  0.792863  0.374614
      ESP Fit Center  406 is at  -3.028743  0.587761  0.374614
      ESP Fit Center  407 is at  -1.639942  3.300467  0.126326
      ESP Fit Center  408 is at  -1.890333  3.300467  0.126326
      ESP Fit Center  409 is at  -2.137927  3.263149  0.126326
      ESP Fit Center  410 is at  -2.377194  3.189344  0.126326
      ESP Fit Center  411 is at  -2.602789  3.080704  0.126326
      ESP Fit Center  412 is at  -2.809672  2.939654  0.126326
      ESP Fit Center  413 is at  -2.993221  2.769344  0.126326
      ESP Fit Center  414 is at  -3.149337  2.573581  0.126326
      ESP Fit Center  415 is at  -3.274533  2.356736  0.126326
      ESP Fit Center  416 is at  -3.366011  2.123654  0.126326
      ESP Fit Center  417 is at  -3.421728  1.879540  0.126326
      ESP Fit Center  418 is at  -3.440440  1.629849  0.126326
      ESP Fit Center  419 is at  -3.421728  1.380159  0.126326
      ESP Fit Center  420 is at  -3.366011  1.136045  0.126326
      ESP Fit Center  421 is at  -3.274533  0.902963  0.126326
      ESP Fit Center  422 is at  -3.149337  0.686118  0.126326
      ESP Fit Center  423 is at  -1.639942  3.300467 -0.124768
      ESP Fit Center  424 is at  -1.890333  3.300467 -0.124768
      ESP Fit Center  425 is at  -2.137927  3.263149 -0.124768
      ESP Fit Center  426 is at  -2.377194  3.189344 -0.124768
      ESP Fit Center  427 is at  -2.602789  3.080704 -0.124768
      ESP Fit Center  428 is at  -2.809672  2.939654 -0.124768
      ESP Fit Center  429 is at  -2.993221  2.769344 -0.124768
      ESP Fit Center  430 is at  -3.149337  2.573581 -0.124768
      ESP Fit Center  431 is at  -3.274533  2.356736 -0.124768
      ESP Fit Center  432 is at  -3.366011  2.123654 -0.124768
      ESP Fit Center  433 is at  -3.421728  1.879540 -0.124768
      ESP Fit Center  434 is at  -3.440440  1.629849 -0.124768
      ESP Fit Center  435 is at  -3.421728  1.380159 -0.124768
      ESP Fit Center  436 is at  -3.366011  1.136045 -0.124768
      ESP Fit Center  437 is at  -3.274533  0.902963 -0.124768
      ESP Fit Center  438 is at  -3.149337  0.686118 -0.124768
      ESP Fit Center  439 is at  -1.702402  3.266526 -0.373056
      ESP Fit Center  440 is at  -1.952975  3.256922 -0.373056
      ESP Fit Center  441 is at  -2.199145  3.209180 -0.373056
      ESP Fit Center  442 is at  -2.435142  3.124420 -0.373056
      ESP Fit Center  443 is at  -2.655435  3.004628 -0.373056
      ESP Fit Center  444 is at  -2.854861  2.852613 -0.373056
      ESP Fit Center  445 is at  -3.028743  2.671938 -0.373056
      ESP Fit Center  446 is at  -3.173009  2.466836 -0.373056
      ESP Fit Center  447 is at  -3.284274  2.242117 -0.373056
      ESP Fit Center  448 is at  -3.359933  2.003046 -0.373056
      ESP Fit Center  449 is at  -3.398211  1.755228 -0.373056
      ESP Fit Center  450 is at  -3.398211  1.504471 -0.373056
      ESP Fit Center  451 is at  -3.359933  1.256653 -0.373056
      ESP Fit Center  452 is at  -3.284274  1.017582 -0.373056
      ESP Fit Center  453 is at  -3.173009  0.792863 -0.373056
      ESP Fit Center  454 is at  -3.028743  0.587761 -0.373056
      ESP Fit Center  455 is at  -1.765138  3.193717 -0.612994
      ESP Fit Center  456 is at  -2.009780  3.174464 -0.612994
      ESP Fit Center  457 is at  -2.248399  3.117176 -0.612994
      ESP Fit Center  458 is at  -2.475119  3.023266 -0.612994
      ESP Fit Center  459 is at  -2.684356  2.895045 -0.612994
      ESP Fit Center  460 is at  -2.870959  2.735671 -0.612994
      ESP Fit Center  461 is at  -3.030333  2.549068 -0.612994
      ESP Fit Center  462 is at  -3.158554  2.339831 -0.612994
      ESP Fit Center  463 is at  -3.252464  2.113111 -0.612994
      ESP Fit Center  464 is at  -3.309752  1.874492 -0.612994
      ESP Fit Center  465 is at  -3.329005  1.629849 -0.612994
      ESP Fit Center  466 is at  -3.309752  1.385207 -0.612994
      ESP Fit Center  467 is at  -3.252464  1.146588 -0.612994
      ESP Fit Center  468 is at  -3.158554  0.919868 -0.612994
      ESP Fit Center  469 is at  -3.030333  0.710631 -0.612994
      ESP Fit Center  470 is at  -2.870959  0.524028 -0.612994
      ESP Fit Center  471 is at  -1.703389  3.083461 -0.839221
      ESP Fit Center  472 is at  -1.949939  3.072988 -0.839221
      ESP Fit Center  473 is at  -2.191172  3.020998 -0.839221
      ESP Fit Center  474 is at  -2.420149  2.928988 -0.839221
      ESP Fit Center  475 is at  -2.630283  2.799603 -0.839221
      ESP Fit Center  476 is at  -2.815528  2.636567 -0.839221
      ESP Fit Center  477 is at  -2.970555  2.444569 -0.839221
      ESP Fit Center  478 is at  -3.090905  2.229134 -0.839221
      ESP Fit Center  479 is at  -3.173114  1.996458 -0.839221
      ESP Fit Center  480 is at  -3.214819  1.753236 -0.839221
      ESP Fit Center  481 is at  -3.214819  1.506463 -0.839221
      ESP Fit Center  482 is at  -3.173114  1.263241 -0.839221
      ESP Fit Center  483 is at  -3.090905  1.030565 -0.839221
      ESP Fit Center  484 is at  -2.970555  0.815129 -0.839221
      ESP Fit Center  485 is at  -2.815528  0.623132 -0.839221
      ESP Fit Center  486 is at  -1.702640  2.941839 -1.046684
      ESP Fit Center  487 is at  -1.952065  2.929957 -1.046684
      ESP Fit Center  488 is at  -2.194734  2.871086 -1.046684
      ESP Fit Center  489 is at  -2.421876  2.767354 -1.046684
      ESP Fit Center  490 is at  -2.625282  2.622509 -1.046684
      ESP Fit Center  491 is at  -2.797600  2.441787 -1.046684
      ESP Fit Center  492 is at  -2.932602  2.231719 -1.046684
      ESP Fit Center  493 is at  -3.025409  1.999899 -1.046684
      ESP Fit Center  494 is at  -3.072667  1.754703 -1.046684
      ESP Fit Center  495 is at  -3.072667  1.504996 -1.046684
      ESP Fit Center  496 is at  -3.025409  1.259800 -1.046684
      ESP Fit Center  497 is at  -2.932602  1.027980 -1.046684
      ESP Fit Center  498 is at  -2.797600  0.817912 -1.046684
      ESP Fit Center  499 is at  -2.625282  0.637190 -1.046684
      ESP Fit Center  500 is at  -1.703274  2.770864 -1.230748
      ESP Fit Center  501 is at  -1.950004  2.757486 -1.230748
      ESP Fit Center  502 is at  -2.188091  2.691382 -1.230748
      ESP Fit Center  503 is at  -2.406401  2.575642 -1.230748
      ESP Fit Center  504 is at  -2.594726  2.415677 -1.230748
      ESP Fit Center  505 is at  -2.744260  2.218968 -1.230748
      ESP Fit Center  506 is at  -2.848012  1.994712 -1.230748
      ESP Fit Center  507 is at  -2.901129  1.753396 -1.230748
      ESP Fit Center  508 is at  -2.901129  1.506303 -1.230748
      ESP Fit Center  509 is at  -2.848012  1.264987 -1.230748
      ESP Fit Center  510 is at  -2.744260  1.040731 -1.230748
      ESP Fit Center  511 is at  -2.594726  0.844022 -1.230748
      ESP Fit Center  512 is at  -2.406401  0.684057 -1.230748
      ESP Fit Center  513 is at  -1.765138  2.576227 -1.387302
      ESP Fit Center  514 is at  -2.010078  2.543980 -1.387302
      ESP Fit Center  515 is at  -2.238326  2.449437 -1.387302
      ESP Fit Center  516 is at  -2.434328  2.299040 -1.387302
      ESP Fit Center  517 is at  -2.584725  2.103038 -1.387302
      ESP Fit Center  518 is at  -2.679268  1.874790 -1.387302
      ESP Fit Center  519 is at  -2.711515  1.629849 -1.387302
      ESP Fit Center  520 is at  -2.679268  1.384909 -1.387302
      ESP Fit Center  521 is at  -2.584725  1.156661 -1.387302
      ESP Fit Center  522 is at  -2.434328  0.960659 -1.387302
      ESP Fit Center  523 is at  -2.238326  0.810262 -1.387302
      ESP Fit Center  524 is at  -1.891714  2.347700 -1.512849
      ESP Fit Center  525 is at  -2.129600  2.261117 -1.512849
      ESP Fit Center  526 is at  -2.323526  2.098393 -1.512849
      ESP Fit Center  527 is at  -2.450103  1.879156 -1.512849
      ESP Fit Center  528 is at  -2.494062  1.629849 -1.512849
      ESP Fit Center  529 is at  -2.450103  1.380543 -1.512849
      ESP Fit Center  530 is at  -2.323526  1.161306 -1.512849
      ESP Fit Center  531 is at  -2.129600  0.998582 -1.512849
      ESP Fit Center  532 is at  -2.012732  2.058695 -1.604583
      ESP Fit Center  533 is at  -2.193984  1.877444 -1.604583
      ESP Fit Center  534 is at  -2.260326  1.629849 -1.604583
      ESP Fit Center  535 is at  -2.193984  1.382255 -1.604583
      ESP Fit Center  536 is at  -2.015529  1.629849 -1.660457
      ESP Fit Center  537 is at   1.260979  2.265511 -0.270548
      ESP Fit Center  538 is at   1.167069  2.492230 -0.270548
      ESP Fit Center  539 is at   1.038848  2.701467 -0.270548
      ESP Fit Center  540 is at   0.879474  2.888070 -0.270548
      ESP Fit Center  541 is at   0.692871  3.047445 -0.270548
      ESP Fit Center  542 is at   0.483634  3.175665 -0.270548
      ESP Fit Center  543 is at   0.256914  3.269576 -0.270548
      ESP Fit Center  544 is at   0.018295  3.326863 -0.270548
      ESP Fit Center  545 is at   1.335200  2.276431 -0.510486
      ESP Fit Center  546 is at   1.241463  2.509008 -0.510486
      ESP Fit Center  547 is at   1.113322  2.724551 -0.510486
      ESP Fit Center  548 is at   0.953780  2.918007 -0.510486
      ESP Fit Center  549 is at   0.766576  3.084842 -0.510486
      ESP Fit Center  550 is at   0.556100  3.221146 -0.510486
      ESP Fit Center  551 is at   0.327283  3.323722 -0.510486
      ESP Fit Center  552 is at   0.085490  3.390168 -0.510486
      ESP Fit Center  553 is at  -0.163612  3.418926 -0.510486
      ESP Fit Center  554 is at  -0.414185  3.409321 -0.510486
      ESP Fit Center  555 is at   1.374526  2.276053 -0.758774
      ESP Fit Center  556 is at   1.283048  2.509135 -0.758774
      ESP Fit Center  557 is at   1.157852  2.725980 -0.758774
      ESP Fit Center  558 is at   1.001736  2.921744 -0.758774
      ESP Fit Center  559 is at   0.818186  3.092053 -0.758774
      ESP Fit Center  560 is at   0.611304  3.233103 -0.758774
      ESP Fit Center  561 is at   0.385709  3.341744 -0.758774
      ESP Fit Center  562 is at   0.146442  3.415548 -0.758774
      ESP Fit Center  563 is at  -0.101152  3.452867 -0.758774
      ESP Fit Center  564 is at  -0.351543  3.452867 -0.758774
      ESP Fit Center  565 is at  -0.599137  3.415548 -0.758774
      ESP Fit Center  566 is at  -0.838404  3.341744 -0.758774
      ESP Fit Center  567 is at   1.374526  2.276053 -1.009868
      ESP Fit Center  568 is at   1.283048  2.509135 -1.009868
      ESP Fit Center  569 is at   1.157852  2.725980 -1.009868
      ESP Fit Center  570 is at   1.001736  2.921744 -1.009868
      ESP Fit Center  571 is at   0.818186  3.092053 -1.009868
      ESP Fit Center  572 is at   0.611304  3.233103 -1.009868
      ESP Fit Center  573 is at   0.385709  3.341744 -1.009868
      ESP Fit Center  574 is at   0.146442  3.415548 -1.009868
      ESP Fit Center  575 is at  -0.101152  3.452867 -1.009868
      ESP Fit Center  576 is at  -0.351543  3.452867 -1.009868
      ESP Fit Center  577 is at  -0.599137  3.415548 -1.009868
      ESP Fit Center  578 is at  -0.838404  3.341744 -1.009868
      ESP Fit Center  579 is at  -1.063999  3.233103 -1.009868
      ESP Fit Center  580 is at   1.335200  2.276431 -1.258156
      ESP Fit Center  581 is at   1.241463  2.509008 -1.258156
      ESP Fit Center  582 is at   1.113322  2.724551 -1.258156
      ESP Fit Center  583 is at   0.953780  2.918007 -1.258156
      ESP Fit Center  584 is at   0.766576  3.084842 -1.258156
      ESP Fit Center  585 is at   0.556100  3.221146 -1.258156
      ESP Fit Center  586 is at   0.327283  3.323722 -1.258156
      ESP Fit Center  587 is at   0.085490  3.390168 -1.258156
      ESP Fit Center  588 is at  -0.163612  3.418926 -1.258156
      ESP Fit Center  589 is at  -0.414185  3.409321 -1.258156
      ESP Fit Center  590 is at  -0.660355  3.361579 -1.258156
      ESP Fit Center  591 is at  -0.896352  3.276819 -1.258156
      ESP Fit Center  592 is at  -1.116645  3.157028 -1.258156
      ESP Fit Center  593 is at  -1.316070  3.005013 -1.258156
      ESP Fit Center  594 is at   1.260979  2.265511 -1.498094
      ESP Fit Center  595 is at   1.167069  2.492230 -1.498094
      ESP Fit Center  596 is at   1.038848  2.701467 -1.498094
      ESP Fit Center  597 is at   0.879474  2.888070 -1.498094
      ESP Fit Center  598 is at   0.692871  3.047445 -1.498094
      ESP Fit Center  599 is at   0.483634  3.175665 -1.498094
      ESP Fit Center  600 is at   0.256914  3.269576 -1.498094
      ESP Fit Center  601 is at   0.018295  3.326863 -1.498094
      ESP Fit Center  602 is at  -0.226348  3.346117 -1.498094
      ESP Fit Center  603 is at  -0.470990  3.326863 -1.498094
      ESP Fit Center  604 is at  -0.709609  3.269576 -1.498094
      ESP Fit Center  605 is at  -0.936329  3.175665 -1.498094
      ESP Fit Center  606 is at  -1.145566  3.047445 -1.498094
      ESP Fit Center  607 is at  -1.332169  2.888070 -1.498094
      ESP Fit Center  608 is at  -1.491543  2.701467 -1.498094
      ESP Fit Center  609 is at   1.207647  2.028132 -1.724321
      ESP Fit Center  610 is at   1.145466  2.266941 -1.724321
      ESP Fit Center  611 is at   1.043821  2.491807 -1.724321
      ESP Fit Center  612 is at   0.905634  2.696260 -1.724321
      ESP Fit Center  613 is at   0.734883  2.874419 -1.724321
      ESP Fit Center  614 is at   0.536479  3.021158 -1.724321
      ESP Fit Center  615 is at   0.316130  3.132256 -1.724321
      ESP Fit Center  616 is at   0.080175  3.204516 -1.724321
      ESP Fit Center  617 is at  -0.164599  3.235861 -1.724321
      ESP Fit Center  618 is at  -0.411149  3.225387 -1.724321
      ESP Fit Center  619 is at  -0.652382  3.173398 -1.724321
      ESP Fit Center  620 is at  -0.881359  3.081387 -1.724321
      ESP Fit Center  621 is at  -1.091493  2.952002 -1.724321
      ESP Fit Center  622 is at  -1.276738  2.788966 -1.724321
      ESP Fit Center  623 is at  -1.431765  2.596969 -1.724321
      ESP Fit Center  624 is at  -1.552115  2.381533 -1.724321
      ESP Fit Center  625 is at  -1.634324  2.148857 -1.724321
      ESP Fit Center  626 is at   0.536479  0.543340 -1.724321
      ESP Fit Center  627 is at   1.087129  1.782249 -1.931784
      ESP Fit Center  628 is at   1.063393  2.030826 -1.931784
      ESP Fit Center  629 is at   0.993042  2.270419 -1.931784
      ESP Fit Center  630 is at   0.878620  2.492368 -1.931784
      ESP Fit Center  631 is at   0.724260  2.688652 -1.931784
      ESP Fit Center  632 is at   0.535544  2.852176 -1.931784
      ESP Fit Center  633 is at   0.319290  2.977029 -1.931784
      ESP Fit Center  634 is at   0.083316  3.058701 -1.931784
      ESP Fit Center  635 is at  -0.163850  3.094238 -1.931784
      ESP Fit Center  636 is at  -0.413275  3.082356 -1.931784
      ESP Fit Center  637 is at  -0.655944  3.023486 -1.931784
      ESP Fit Center  638 is at  -0.883086  2.919753 -1.931784
      ESP Fit Center  639 is at  -1.086492  2.774908 -1.931784
      ESP Fit Center  640 is at  -1.258810  2.594186 -1.931784
      ESP Fit Center  641 is at  -1.393812  2.384119 -1.931784
      ESP Fit Center  642 is at  -1.486619  2.152298 -1.931784
      ESP Fit Center  643 is at  -1.533877  1.907103 -1.931784
      ESP Fit Center  644 is at  -1.533877  1.657395 -1.931784
      ESP Fit Center  645 is at   0.083316  0.505797 -1.931784
      ESP Fit Center  646 is at   0.319290  0.587468 -1.931784
      ESP Fit Center  647 is at   0.535544  0.712322 -1.931784
      ESP Fit Center  648 is at   0.916343  1.782249 -2.115848
      ESP Fit Center  649 is at   0.889627  2.027893 -2.115848
      ESP Fit Center  650 is at   0.810730  2.262052 -2.115848
      ESP Fit Center  651 is at   0.683340  2.473775 -2.115848
      ESP Fit Center  652 is at   0.513414  2.653164 -2.115848
      ESP Fit Center  653 is at   0.308898  2.791829 -2.115848
      ESP Fit Center  654 is at   0.079354  2.883288 -2.115848
      ESP Fit Center  655 is at  -0.164484  2.923263 -2.115848
      ESP Fit Center  656 is at  -0.411214  2.909886 -2.115848
      ESP Fit Center  657 is at  -0.649301  2.843781 -2.115848
      ESP Fit Center  658 is at  -0.867610  2.728041 -2.115848
      ESP Fit Center  659 is at  -1.055935  2.568076 -2.115848
      ESP Fit Center  660 is at  -1.205470  2.371367 -2.115848
      ESP Fit Center  661 is at  -1.309222  2.147112 -2.115848
      ESP Fit Center  662 is at  -1.362339  1.905795 -2.115848
      ESP Fit Center  663 is at  -1.362339  1.658702 -2.115848
      ESP Fit Center  664 is at  -1.309222  1.417386 -2.115848
      ESP Fit Center  665 is at  -1.205470  1.193131 -2.115848
      ESP Fit Center  666 is at  -1.055935  0.996421 -2.115848
      ESP Fit Center  667 is at  -0.867610  0.836457 -2.115848
      ESP Fit Center  668 is at  -0.649301  0.720716 -2.115848
      ESP Fit Center  669 is at  -0.411214  0.654612 -2.115848
      ESP Fit Center  670 is at  -0.164484  0.641234 -2.115848
[...]
 **** Fit       0.012199
 **** Fit       0.012156
 **** Fit       0.012129
 **** Fit       0.012115
 **** Fit       0.012112
 **** Fit       0.012121
 **** Fit       0.012139
 **** Fit       0.012169
 **** Fit       0.012210
 **** Fit       0.012265
 **** Fit       0.012346
 **** Fit       0.012434
 **** Fit       0.012542
 **** Fit       0.014020
 **** Fit       0.013535
 **** Fit       0.013163
 **** Fit       0.012879
 **** Fit       0.012663
 **** Fit       0.012500
 **** Fit       0.012378
 **** Fit       0.012287
 **** Fit       0.012222
 **** Fit       0.012177
 **** Fit       0.012148
 **** Fit       0.012133
 **** Fit       0.012129
 **** Fit       0.012136
 **** Fit       0.012154
 **** Fit       0.012182
 **** Fit       0.012223
 **** Fit       0.012277
 **** Fit       0.012346
 **** Fit       0.012434
 **** Fit       0.012542
 **** Fit       0.014019
 **** Fit       0.013534
 **** Fit       0.013162
 **** Fit       0.012879
 **** Fit       0.012663
 **** Fit       0.012500
 **** Fit       0.012377
 **** Fit       0.012287
 **** Fit       0.012222
 **** Fit       0.012177
 **** Fit       0.012148
 **** Fit       0.012133
 **** Fit       0.012129
 **** Fit       0.012136
 **** Fit       0.012154
 **** Fit       0.012182
 **** Fit       0.012223
 **** Fit       0.012277
 **** Fit       0.012335
 **** Fit       0.012423
 **** Fit       0.012532
 **** Fit       0.013932
 **** Fit       0.013465
 **** Fit       0.013107
 **** Fit       0.012833
 **** Fit       0.012624
 **** Fit       0.012467
 **** Fit       0.012348
 **** Fit       0.012261
 **** Fit       0.012199
 **** Fit       0.012156
 **** Fit       0.012129
 **** Fit       0.012115
 **** Fit       0.012112
 **** Fit       0.012120
 **** Fit       0.012139
 **** Fit       0.012168
 **** Fit       0.012210
 **** Fit       0.012264
 **** Fit       0.012312
 **** Fit       0.012402
 **** Fit       0.012514
 **** Fit       0.013417
 **** Fit       0.013060
 **** Fit       0.012788
 **** Fit       0.012580
 **** Fit       0.012423
 **** Fit       0.012306
 **** Fit       0.012221
 **** Fit       0.012159
 **** Fit       0.012118
 **** Fit       0.012092
 **** Fit       0.012079
 **** Fit       0.012078
 **** Fit       0.012088
 **** Fit       0.012108
 **** Fit       0.012139
 **** Fit       0.012183
 **** Fit       0.012239
 **** Fit       0.012278
 **** Fit       0.012373
 **** Fit       0.013385
 **** Fit       0.013020
 **** Fit       0.012741
 **** Fit       0.012529
 **** Fit       0.012369
 **** Fit       0.012250
 **** Fit       0.012164
 **** Fit       0.012103
 **** Fit       0.012062
 **** Fit       0.012037
 **** Fit       0.012026
 **** Fit       0.012027
 **** Fit       0.012039
 **** Fit       0.012062
 **** Fit       0.012095
 **** Fit       0.012141
 **** Fit       0.012201
 **** Fit       0.012233
 **** Fit       0.012334
 **** Fit       0.012911
 **** Fit       0.012639
 **** Fit       0.012433
 **** Fit       0.012277
 **** Fit       0.012162
 **** Fit       0.012079
 **** Fit       0.012021
 **** Fit       0.011984
 **** Fit       0.011962
 **** Fit       0.011955
 **** Fit       0.011959
 **** Fit       0.011974
 **** Fit       0.012000
 **** Fit       0.012038
 **** Fit       0.012087
 **** Fit       0.012152
 **** Fit       0.012177
 **** Fit       0.012285
 **** Fit       0.012720
 **** Fit       0.012474
 **** Fit       0.012285
 **** Fit       0.012143
 **** Fit       0.012038
 **** Fit       0.011964
 **** Fit       0.011913
 **** Fit       0.011882
 **** Fit       0.011867
 **** Fit       0.011864
 **** Fit       0.011874
 **** Fit       0.011894
 **** Fit       0.011924
 **** Fit       0.011966
 **** Fit       0.012021
 **** Fit       0.012090
 **** Fit       0.012112
 **** Fit       0.012275
 **** Fit       0.012109
 **** Fit       0.011982
 **** Fit       0.011890
 **** Fit       0.011825
 **** Fit       0.011783
 **** Fit       0.011759
 **** Fit       0.011750
 **** Fit       0.011754
 **** Fit       0.011769
 **** Fit       0.011795
 **** Fit       0.011832
 **** Fit       0.011880
 **** Fit       0.011941
 **** Fit       0.012017
 **** Fit       0.012037
 **** Fit       0.011853
 **** Fit       0.011761
 **** Fit       0.011693
 **** Fit       0.011646
 **** Fit       0.011619
 **** Fit       0.011607
 **** Fit       0.011609
 **** Fit       0.011622
 **** Fit       0.011646
 **** Fit       0.011680
 **** Fit       0.011724
 **** Fit       0.011779
 **** Fit       0.011848
 **** Fit       0.011933
 **** Fit       0.011472
 **** Fit       0.011442
 **** Fit       0.011424
 **** Fit       0.011418
 **** Fit       0.011424
 **** Fit       0.011440
 **** Fit       0.011465
 **** Fit       0.011500
 **** Fit       0.011544
 **** Fit       0.011597
 **** Fit       0.011663
 **** Fit       0.011741
 **** Fit       0.011836
 **** Fit       0.011134
 **** Fit       0.011165
 **** Fit       0.011199
 **** Fit       0.011237
 **** Fit       0.011280
 **** Fit       0.011331
 **** Fit       0.011388
 **** Fit       0.011454
 **** Fit       0.011531
 **** Fit       0.011622
 **** Fit       0.010910
 **** Fit       0.010983
 **** Fit       0.011055
 **** Fit       0.011127
 **** Fit       0.011204
 **** Fit       0.011287
 **** Fit       0.011379
 **** Fit       0.013110
 **** Fit       0.013224
 **** Fit       0.013369
 **** Fit       0.013551
 **** Fit       0.012705
 **** Fit       0.012734
 **** Fit       0.012781
 **** Fit       0.012850
 **** Fit       0.012941
 **** Fit       0.013060
 **** Fit       0.013211
 **** Fit       0.013401
 **** Fit       0.012506
 **** Fit       0.012511
 **** Fit       0.012533
 **** Fit       0.012571
 **** Fit       0.012628
 **** Fit       0.012706
 **** Fit       0.012808
 **** Fit       0.012938
 **** Fit       0.013103
 **** Fit       0.013309
 **** Fit       0.012334
 **** Fit       0.012323
 **** Fit       0.012327
 **** Fit       0.012345
 **** Fit       0.012379
 **** Fit       0.012430
 **** Fit       0.012500
 **** Fit       0.012592
 **** Fit       0.012710
 **** Fit       0.012859
 **** Fit       0.013046
 **** Fit       0.013282
 **** Fit       0.012151
 **** Fit       0.012141
 **** Fit       0.012144
 **** Fit       0.012161
 **** Fit       0.012192
 **** Fit       0.012238
 **** Fit       0.012300
 **** Fit       0.012383
 **** Fit       0.012488
 **** Fit       0.012620
 **** Fit       0.012787
 **** Fit       0.012995
 **** Fit       0.011982
 **** Fit       0.011962
 **** Fit       0.011954
 **** Fit       0.011959
 **** Fit       0.011975
 **** Fit       0.012004
 **** Fit       0.012046
 **** Fit       0.012103
 **** Fit       0.012176
 **** Fit       0.012269
 **** Fit       0.012386
 **** Fit       0.012531
 **** Fit       0.012712
 **** Fit       0.012937
 **** Fit       0.011773
 **** Fit       0.011760
 **** Fit       0.011758
 **** Fit       0.011767
 **** Fit       0.011786
 **** Fit       0.011817
 **** Fit       0.011858
 **** Fit       0.011913
 **** Fit       0.011982
 **** Fit       0.012069
 **** Fit       0.012176
 **** Fit       0.012308
 **** Fit       0.012472
 **** Fit       0.012674
 **** Fit       0.012925
 **** Fit       0.011545
 **** Fit       0.011543
 **** Fit       0.011549
 **** Fit       0.011565
 **** Fit       0.011588
 **** Fit       0.011621
 **** Fit       0.011664
 **** Fit       0.011717
 **** Fit       0.011783
 **** Fit       0.011863
 **** Fit       0.011960
 **** Fit       0.012079
 **** Fit       0.012224
 **** Fit       0.012401
 **** Fit       0.012617
 **** Fit       0.011291
 **** Fit       0.011304
 **** Fit       0.011323
 **** Fit       0.011348
 **** Fit       0.011380
 **** Fit       0.011418
 **** Fit       0.011465
 **** Fit       0.011520
 **** Fit       0.011585
 **** Fit       0.011663
 **** Fit       0.011755
 **** Fit       0.011866
 **** Fit       0.011998
 **** Fit       0.012158
 **** Fit       0.012351
 **** Fit       0.011000
 **** Fit       0.011036
 **** Fit       0.011072
 **** Fit       0.011111
 **** Fit       0.011153
 **** Fit       0.011200
 **** Fit       0.011252
 **** Fit       0.011310
 **** Fit       0.011376
 **** Fit       0.011451
 **** Fit       0.011537
 **** Fit       0.011638
 **** Fit       0.011757
 **** Fit       0.011896
 **** Fit       0.012059
 **** Fit       0.012248
 **** Fit       0.010728
 **** Fit       0.010791
 **** Fit       0.010850
 **** Fit       0.010908
 **** Fit       0.010967
 **** Fit       0.011028
 **** Fit       0.011092
 **** Fit       0.011161
 **** Fit       0.011237
 **** Fit       0.011321
 **** Fit       0.011415
 **** Fit       0.011522
 **** Fit       0.011644
 **** Fit       0.011780
 **** Fit       0.011929
 **** Fit       0.010660
 **** Fit       0.010463
 **** Fit       0.010552
 **** Fit       0.010633
 **** Fit       0.010709
 **** Fit       0.010783
 **** Fit       0.010855
 **** Fit       0.010929
 **** Fit       0.011006
 **** Fit       0.011086
 **** Fit       0.011171
 **** Fit       0.011263
 **** Fit       0.011360
 **** Fit       0.011460
 **** Fit       0.011554
 **** Fit       0.010246
 **** Fit       0.010363
 **** Fit       0.010203
 **** Fit       0.010317
 **** Fit       0.010419
 **** Fit       0.010511
 **** Fit       0.010596
 **** Fit       0.010677
 **** Fit       0.010755
 **** Fit       0.010831
 **** Fit       0.010906
 **** Fit       0.010978
 **** Fit       0.011043
 **** Fit       0.011096
 **** Fit       0.011120
 **** Fit       0.009914
 **** Fit       0.010071
 **** Fit       0.009945
 **** Fit       0.010084
 **** Fit       0.010204
 **** Fit       0.010308
 **** Fit       0.010401
 **** Fit       0.010483
 **** Fit       0.010555
 **** Fit       0.010617
 **** Fit       0.010665
 **** Fit       0.010692
 **** Fit       0.010685
 **** Fit       0.010625
 **** Fit       0.010481
 **** Fit       0.009343
 **** Fit       0.009583
 **** Fit       0.009781
 **** Fit       0.009687
 **** Fit       0.009854
 **** Fit       0.009992
 **** Fit       0.010105
 **** Fit       0.010197
 **** Fit       0.010266
 **** Fit       0.010311
 **** Fit       0.010324
 **** Fit       0.010290
 **** Fit       0.010189
 **** Fit       0.009990
 **** Fit       0.009660
 **** Fit       0.009174
 **** Fit       0.008533
 **** Fit       0.007770
 **** Fit       0.006960
 **** Fit       0.006201
 **** Fit       0.008552
 **** Fit       0.008927
 **** Fit       0.009234
 **** Fit       0.009484
 **** Fit       0.009428
 **** Fit       0.009623
 **** Fit       0.009773
 **** Fit       0.009882
 **** Fit       0.009949
 **** Fit       0.009969
 **** Fit       0.009927
 **** Fit       0.009800
 **** Fit       0.009555
 **** Fit       0.009165
 **** Fit       0.008618
 **** Fit       0.007946
 **** Fit       0.007230
 **** Fit       0.006587
 **** Fit       0.006138
 **** Fit       0.005968
 **** Fit       0.008026
 **** Fit       0.008485
 **** Fit       0.008869
 **** Fit       0.009180
 **** Fit       0.009166
 **** Fit       0.009387
 **** Fit       0.009533
 **** Fit       0.009602
 **** Fit       0.009584
 **** Fit       0.009453
 **** Fit       0.009176
 **** Fit       0.008733
 **** Fit       0.008146
 **** Fit       0.007509
 **** Fit       0.006977
 **** Fit       0.006696
 **** Fit       0.006733
 **** Fit       0.007043
 **** Fit       0.007512
 **** Fit       0.008018
 **** Fit       0.008481
 **** Fit       0.008866
 **** Fit       0.008901
 **** Fit       0.009135
 **** Fit       0.009223
 **** Fit       0.009139
 **** Fit       0.008850
 **** Fit       0.008361
 **** Fit       0.007792
 **** Fit       0.007380
 **** Fit       0.007321
 **** Fit       0.007609
 **** Fit       0.008073
 **** Fit       0.008535
 **** Fit       0.008630
 **** Fit       0.008808
 **** Fit       0.008576
 **** Fit       0.008075
 **** Fit       0.007860
 **** Fit       0.008186
 **** Fit       0.008355
 **** Fit       0.008350
 **** Fit       0.008625
 **** Fit       0.008802
 **** Fit       0.008571
 **** Fit       0.008069
 **** Fit       0.007855
 **** Fit       0.008181
 **** Fit       0.008896
 **** Fit       0.009130
 **** Fit       0.009217
 **** Fit       0.009133
 **** Fit       0.008844
 **** Fit       0.008355
 **** Fit       0.007786
 **** Fit       0.007375
 **** Fit       0.007317
 **** Fit       0.007605
 **** Fit       0.008069
 **** Fit       0.008531
 **** Fit       0.009162
 **** Fit       0.009382
 **** Fit       0.009528
 **** Fit       0.009597
 **** Fit       0.009578
 **** Fit       0.009446
 **** Fit       0.009169
 **** Fit       0.008725
 **** Fit       0.008138
 **** Fit       0.007503
 **** Fit       0.006972
 **** Fit       0.006692
 **** Fit       0.006729
 **** Fit       0.007040
 **** Fit       0.007508
 **** Fit       0.008014
 **** Fit       0.008477
 **** Fit       0.008862
 **** Fit       0.009424
 **** Fit       0.009618
 **** Fit       0.009768
 **** Fit       0.009877
 **** Fit       0.009944
 **** Fit       0.009963
 **** Fit       0.009921
 **** Fit       0.009792
 **** Fit       0.009548
 **** Fit       0.009157
 **** Fit       0.008610
 **** Fit       0.007938
 **** Fit       0.007223
 **** Fit       0.006581
 **** Fit       0.006134
 **** Fit       0.005964
 **** Fit       0.008022
 **** Fit       0.008481
 **** Fit       0.008865
 **** Fit       0.009176
 **** Fit       0.009682
 **** Fit       0.009850
 **** Fit       0.009987
 **** Fit       0.010100
 **** Fit       0.010192
 **** Fit       0.010261
 **** Fit       0.010305
 **** Fit       0.010317
 **** Fit       0.010283
 **** Fit       0.010181
 **** Fit       0.009981
 **** Fit       0.009650
 **** Fit       0.009164
 **** Fit       0.008523
 **** Fit       0.007761
 **** Fit       0.006951
 **** Fit       0.006194
 **** Fit       0.008548
 **** Fit       0.008923
 **** Fit       0.009229
 **** Fit       0.009479
 **** Fit       0.009940
 **** Fit       0.010079
 **** Fit       0.010199
 **** Fit       0.010304
 **** Fit       0.010396
 **** Fit       0.010478
 **** Fit       0.010550
 **** Fit       0.010611
 **** Fit       0.010659
 **** Fit       0.010685
 **** Fit       0.010678
 **** Fit       0.010616
 **** Fit       0.010472
 **** Fit       0.009338
 **** Fit       0.009578
 **** Fit       0.009775
 **** Fit       0.010198
 **** Fit       0.010312
 **** Fit       0.010414
 **** Fit       0.010506
 **** Fit       0.010591
 **** Fit       0.010672
 **** Fit       0.010750
 **** Fit       0.010826
 **** Fit       0.010900
 **** Fit       0.010972
 **** Fit       0.011037
 **** Fit       0.011089
 **** Fit       0.011112
 **** Fit       0.009908
 **** Fit       0.010065
 **** Fit       0.010458
 **** Fit       0.010547
 **** Fit       0.010628
 **** Fit       0.010704
 **** Fit       0.010778
 **** Fit       0.010851
 **** Fit       0.010925
 **** Fit       0.011001
 **** Fit       0.011081
 **** Fit       0.011166
 **** Fit       0.011258
 **** Fit       0.011354
 **** Fit       0.011453
 **** Fit       0.011547
 **** Fit       0.010240
 **** Fit       0.010357
 **** Fit       0.010722
 **** Fit       0.010785
 **** Fit       0.010845
 **** Fit       0.010903
 **** Fit       0.010962
 **** Fit       0.011023
 **** Fit       0.011088
 **** Fit       0.011157
 **** Fit       0.011232
 **** Fit       0.011316
 **** Fit       0.011410
 **** Fit       0.011517
 **** Fit       0.011638
 **** Fit       0.011774
 **** Fit       0.011922
 **** Fit       0.010653
 **** Fit       0.010994
 **** Fit       0.011030
 **** Fit       0.011067
 **** Fit       0.011106
 **** Fit       0.011149
 **** Fit       0.011195
 **** Fit       0.011247
 **** Fit       0.011306
 **** Fit       0.011371
 **** Fit       0.011446
 **** Fit       0.011533
 **** Fit       0.011634
 **** Fit       0.011752
 **** Fit       0.011891
 **** Fit       0.012054
 **** Fit       0.012243
 **** Fit       0.011285
 **** Fit       0.011298
 **** Fit       0.011318
 **** Fit       0.011343
 **** Fit       0.011375
 **** Fit       0.011414
 **** Fit       0.011460
 **** Fit       0.011516
 **** Fit       0.011581
 **** Fit       0.011659
 **** Fit       0.011751
 **** Fit       0.011862
 **** Fit       0.011994
 **** Fit       0.012154
 **** Fit       0.012346
 **** Fit       0.011539
 **** Fit       0.011538
 **** Fit       0.011545
 **** Fit       0.011560
 **** Fit       0.011584
 **** Fit       0.011617
 **** Fit       0.011660
 **** Fit       0.011713
 **** Fit       0.011779
 **** Fit       0.011859
 **** Fit       0.011957
 **** Fit       0.012075
 **** Fit       0.012220
 **** Fit       0.012397
 **** Fit       0.012614
 **** Fit       0.011768
 **** Fit       0.011755
 **** Fit       0.011754
 **** Fit       0.011763
 **** Fit       0.011783
 **** Fit       0.011813
 **** Fit       0.011855
 **** Fit       0.011910
 **** Fit       0.011979
 **** Fit       0.012066
 **** Fit       0.012173
 **** Fit       0.012305
 **** Fit       0.012469
 **** Fit       0.012672
 **** Fit       0.012923
 **** Fit       0.011977
 **** Fit       0.011957
 **** Fit       0.011950
 **** Fit       0.011955
 **** Fit       0.011972
 **** Fit       0.012001
 **** Fit       0.012043
 **** Fit       0.012100
 **** Fit       0.012173
 **** Fit       0.012266
 **** Fit       0.012383
 **** Fit       0.012529
 **** Fit       0.012710
 **** Fit       0.012936
 **** Fit       0.012147
 **** Fit       0.012137
 **** Fit       0.012141
 **** Fit       0.012158
 **** Fit       0.012189
 **** Fit       0.012235
 **** Fit       0.012298
 **** Fit       0.012380
 **** Fit       0.012486
 **** Fit       0.012619
 **** Fit       0.012785
 **** Fit       0.012994
 **** Fit       0.012331
 **** Fit       0.012320
 **** Fit       0.012324
 **** Fit       0.012343
 **** Fit       0.012377
 **** Fit       0.012429
 **** Fit       0.012499
 **** Fit       0.012591
 **** Fit       0.012709
 **** Fit       0.012858
 **** Fit       0.013046
 **** Fit       0.013282
 **** Fit       0.012503
 **** Fit       0.012509
 **** Fit       0.012531
 **** Fit       0.012570
 **** Fit       0.012627
 **** Fit       0.012705
 **** Fit       0.012808
 **** Fit       0.012938
 **** Fit       0.013103
 **** Fit       0.013310
 **** Fit       0.012704
 **** Fit       0.012733
 **** Fit       0.012781
 **** Fit       0.012850
 **** Fit       0.012942
 **** Fit       0.013061
 **** Fit       0.013212
 **** Fit       0.013402
 **** Fit       0.013111
 **** Fit       0.013225
 **** Fit       0.013371
 **** Fit       0.013554
 -----------------------------------------------------------------
 Leave Link  602 at Thu Sep 13 10:58:23 2018, MaxMem=    33554432 cpu:         5.9
 (Enter /usr/local/shared/gaussian/amd64/09-E01/g09/l9999.exe)

 Test job not archived.
 1\1\GINC-ESPERANTO\SP\RHF\6-31G(d)\C3H7N1O1\BM543\13-Sep-2018\0\\#P HF
 /6-31G* SCF=Tight Pop=MK IOp(6/33=2,6/41=10,6/42=17)\\Title\\0,1\C,0,-
 0.71067,-1.35724,-0.00002\H,0,-0.22497,-1.78239,-0.88352\H,0,-1.76514,
 -1.62985,-0.00078\H,0,-0.22635,-1.78225,0.88432\C,0,-0.62381,0.15466,-
 0.00001\O,0,-1.61974,0.88102,0.00001\N,0,0.64105,0.67884,0.\H,0,0.6652
 7,1.69106,-0.00013\C,0,1.88911,-0.06005,0.\H,0,2.70865,0.65965,0.00137
 \H,0,1.99199,-0.6912,0.88848\H,0,1.99327,-0.68933,-0.88968\\Version=EM
 64L-G09RevE.01\State=1-A\HF=-246.9993727\RMSD=8.771e-09\Dipole=1.58002
 14,-0.713447,0.0000431\Quadrupole=-1.8369686,1.564907,0.2720617,3.7891
 382,0.0005084,-0.0005772\PG=C01 [X(C3H7N1O1)]\\@


 TERENCE, THIS IS STUPID STUFF:
 YOU EAT YOUR VICTUALS FAST ENOUGH;
 THERE CAN'T BE MUCH AMISS, 'TIS CLEAR
 TO SEE THE RATE YOU DRINK YOUR BEER.
 BUT OH, GOOD LORD, THE VERSE YOU MAKE,
 IT GIVES A CHAP THE BELLY-ACHE.
 THE COW, THE OLD COW, SHE IS DEAD;
 IT SLEEPS WELL, THE HORNED HEAD:
 WE POOR LADS, 'TIS OUR TURN NOW
 TO HEAR SUCH TUNES AS KILLED THE COW.
 PRETTY FRIENDSHIP 'TIS TO RHYME
 YOUR FRIENDS TO DEATH BEFORE THEIR TIME.
 MOPING, MELANCHOLY MAD:
 COME PIPE A TUNE TO DANCE TO, LAD.

     -- A. E. HOUSMAN
 Job cpu time:       0 days  0 hours  0 minutes 58.9 seconds.
 File lengths (MBytes):  RWF=      5 Int=      0 D2E=      0 Chk=      1 Scr=      1
 Normal termination of Gaussian 09 at Thu Sep 13 10:58:24 2018.
