 Entering Link 1 = C:\G09W\l1.exe PID=      2412.
  
 Copyright (c) 1988,1990,1992,1993,1995,1998,2003,2009,2011,
            Gaussian, Inc.  All Rights Reserved.
  
 This is part of the Gaussian(R) 09 program.  It is based on
 the Gaussian(R) 03 system (copyright 2003, Gaussian, Inc.),
 the Gaussian(R) 98 system (copyright 1998, Gaussian, Inc.),
 the Gaussian(R) 94 system (copyright 1995, Gaussian, Inc.),
 the Gaussian 92(TM) system (copyright 1992, Gaussian, Inc.),
 the Gaussian 90(TM) system (copyright 1990, Gaussian, Inc.),
 the Gaussian 88(TM) system (copyright 1988, Gaussian, Inc.),
 the Gaussian 86(TM) system (copyright 1986, Carnegie Mellon
 University), and the Gaussian 82(TM) system (copyright 1983,
 Carnegie Mellon University). Gaussian is a federally registered
 trademark of Gaussian, Inc.
  
 This software contains proprietary and confidential information,
 including trade secrets, belonging to Gaussian, Inc.
  
 This software is provided under written license and may be
 used, copied, transmitted, or stored only in accord with that
 written license.
  
 The following legend is applicable only to US Government
 contracts under FAR:
  
                    RESTRICTED RIGHTS LEGEND
  
 Use, reproduction and disclosure by the US Government is
 subject to restrictions as set forth in subparagraphs (a)
 and (c) of the Commercial Computer Software - Restricted
 Rights clause in FAR 52.227-19.
  
 Gaussian, Inc.
 340 Quinnipiac St., Bldg. 40, Wallingford CT 06492
  
  
 ---------------------------------------------------------------
 Warning -- This program may not be used in any manner that
 competes with the business of Gaussian, Inc. or will provide
 assistance to any competitor of Gaussian, Inc.  The licensee
 of this program is prohibited from giving any competitor of
 Gaussian, Inc. access to this program.  By using this program,
 the user acknowledges that Gaussian, Inc. is engaged in the
 business of creating and licensing software in the field of
 computational chemistry and represents and warrants to the
 licensee that it is not a competitor of Gaussian, Inc. and that
 it will not use this program in any manner prohibited above.
 ---------------------------------------------------------------
  

 Cite this work as:
 Gaussian 09, Revision C.01,
 M. J. Frisch, G. W. Trucks, H. B. Schlegel, G. E. Scuseria, 
 M. A. Robb, J. R. Cheeseman, G. Scalmani, V. Barone, B. Mennucci, 
 G. A. Petersson, H. Nakatsuji, M. Caricato, X. Li, H. P. Hratchian, 
 A. F. Izmaylov, J. Bloino, G. Zheng, J. L. Sonnenberg, M. Hada, 
 M. Ehara, K. Toyota, R. Fukuda, J. Hasegawa, M. Ishida, T. Nakajima, 
 Y. Honda, O. Kitao, H. Nakai, T. Vreven, J. A. Montgomery, Jr., 
 J. E. Peralta, F. Ogliaro, M. Bearpark, J. J. Heyd, E. Brothers, 
 K. N. Kudin, V. N. Staroverov, T. Keith, R. Kobayashi, J. Normand, 
 K. Raghavachari, A. Rendell, J. C. Burant, S. S. Iyengar, J. Tomasi, 
 M. Cossi, N. Rega, J. M. Millam, M. Klene, J. E. Knox, J. B. Cross, 
 V. Bakken, C. Adamo, J. Jaramillo, R. Gomperts, R. E. Stratmann, 
 O. Yazyev, A. J. Austin, R. Cammi, C. Pomelli, J. W. Ochterski, 
 R. L. Martin, K. Morokuma, V. G. Zakrzewski, G. A. Voth, 
 P. Salvador, J. J. Dannenberg, S. Dapprich, A. D. Daniels, 
 O. Farkas, J. B. Foresman, J. V. Ortiz, J. Cioslowski, 
 and D. J. Fox, Gaussian, Inc., Wallingford CT, 2010.
 
 ******************************************
 Gaussian 09:  IA32W-G09RevC.01 23-Sep-2011
                05-Feb-2015 
 ******************************************
 %nprocshared=4
 Will use up to    4 processors via shared memory.
 -------------------------------------------------
 # opt=modredundant MP2/6-31g(d) geom=connectivity
 -------------------------------------------------
 1/18=120,19=15,38=1,57=2/1,3;
 2/9=110,12=2,17=6,18=5,40=1/2;
 3/5=1,6=6,7=1,11=9,16=1,25=1,30=1,71=1/1,2,3;
 4//1;
 5/5=2,38=5/2;
 8/6=4,10=2/1;
 9/15=2,16=-3/6;
 10/5=1/2;
 6/7=2,8=2,9=2,10=2/1;
 7/12=2/1,2,3,16;
 1/18=20,19=15/3(2);
 2/9=110/2;
 99//99;
 2/9=110/2;
 3/5=1,6=6,7=1,11=9,16=1,25=1,30=1,71=1/1,2,3;
 4/5=5,16=3/1;
 5/5=2,38=5/2;
 8/6=4,10=2/1;
 9/15=2,16=-3/6;
 10/5=1/2;
 7/12=2/1,2,3,16;
 1/18=20,19=15/3(-8);
 2/9=110/2;
 6/7=2,8=2,9=2,10=2/1;
 99//99;
 -------------------
 Title Card Required
 -------------------
 Charge =  0 Multiplicity = 1
 Symbolic Z-Matrix:
 C
 H                    1    B1
 H                    1    B2       2    A1
 H                    1    B3       3    A2       2    D1       0
 C                    1    B4       4    A3       2    D2       0
 O                    5    B5       1    A4       4    D3       0
 N                    5    B6       1    A5       6    D4       0
 H                    7    B7       5    A6       1    D5       0
 C                    7    B8       5    A7       1    D6       0
 H                    9    B9       7    A8       5    D7       0
 H                    9    B10      7    A9       5    D8       0
 H                    9    B11      7    A10      5    D9       0
       Variables:
  B1                    1.07                     
  B2                    1.07                     
  B3                    1.07                     
  B4                    1.54                     
  B5                    1.2584                   
  B6                    1.47                     
  B7                    1.                       
  B8                    1.47                     
  B9                    1.07                     
  B10                   1.07                     
  B11                   1.07                     
  A1                  109.47122                  
  A2                  109.47122                  
  A3                  109.47122                  
  A4                  120.                       
  A5                  120.                       
  A6                  109.47122                  
  A7                  109.47122                  
  A8                  109.47122                  
  A9                  109.47122                  
  A10                 109.47122                  
  D1                 -120.                       
  D2                 -120.                       
  D3                  150.                       
  D4                 -180.                       
  D5                   60.                       
  D6                  180.                       
  D7                 -180.                       
  D8                  -60.                       
  D9                   60.                       
 
     8 tetrahedral angles replaced.
 The following ModRedundant input section has been read:
 D       1       5       7       9 S  12 -15.00                                

 GradGradGradGradGradGradGradGradGradGradGradGradGradGradGradGradGradGrad
 Berny optimization.
 Initialization pass.
                           ----------------------------
                           !    Initial Parameters    !
                           ! (Angstroms and Degrees)  !
 --------------------------                            --------------------------
 ! Name  Definition              Value          Derivative Info.                !
 --------------------------------------------------------------------------------
 ! R1    R(1,2)                  1.07           estimate D2E/DX2                !
 ! R2    R(1,3)                  1.07           estimate D2E/DX2                !
 ! R3    R(1,4)                  1.07           estimate D2E/DX2                !
 ! R4    R(1,5)                  1.54           estimate D2E/DX2                !
 ! R5    R(5,6)                  1.2584         estimate D2E/DX2                !
 ! R6    R(5,7)                  1.47           estimate D2E/DX2                !
 ! R7    R(7,8)                  1.0            estimate D2E/DX2                !
 ! R8    R(7,9)                  1.47           estimate D2E/DX2                !
 ! R9    R(9,10)                 1.07           estimate D2E/DX2                !
 ! R10   R(9,11)                 1.07           estimate D2E/DX2                !
 ! R11   R(9,12)                 1.07           estimate D2E/DX2                !
 ! A1    A(2,1,3)              109.4712         estimate D2E/DX2                !
 ! A2    A(2,1,4)              109.4712         estimate D2E/DX2                !
 ! A3    A(2,1,5)              109.4712         estimate D2E/DX2                !
 ! A4    A(3,1,4)              109.4712         estimate D2E/DX2                !
 ! A5    A(3,1,5)              109.4712         estimate D2E/DX2                !
 ! A6    A(4,1,5)              109.4712         estimate D2E/DX2                !
 ! A7    A(1,5,6)              120.0            estimate D2E/DX2                !
 ! A8    A(1,5,7)              120.0            estimate D2E/DX2                !
 ! A9    A(6,5,7)              120.0            estimate D2E/DX2                !
 ! A10   A(5,7,8)              109.4712         estimate D2E/DX2                !
 ! A11   A(5,7,9)              109.4712         estimate D2E/DX2                !
 ! A12   A(8,7,9)              109.4712         estimate D2E/DX2                !
 ! A13   A(7,9,10)             109.4712         estimate D2E/DX2                !
 ! A14   A(7,9,11)             109.4712         estimate D2E/DX2                !
 ! A15   A(7,9,12)             109.4712         estimate D2E/DX2                !
 ! A16   A(10,9,11)            109.4712         estimate D2E/DX2                !
 ! A17   A(10,9,12)            109.4712         estimate D2E/DX2                !
 ! A18   A(11,9,12)            109.4712         estimate D2E/DX2                !
 ! D1    D(2,1,5,6)             30.0            estimate D2E/DX2                !
 ! D2    D(2,1,5,7)           -150.0            estimate D2E/DX2                !
 ! D3    D(3,1,5,6)            -90.0            estimate D2E/DX2                !
 ! D4    D(3,1,5,7)             90.0            estimate D2E/DX2                !
 ! D5    D(4,1,5,6)            150.0            estimate D2E/DX2                !
 ! D6    D(4,1,5,7)            -30.0            estimate D2E/DX2                !
 ! D7    D(1,5,7,8)             60.0            estimate D2E/DX2                !
 ! D8    D(1,5,7,9)            180.0            Scan                            !
 ! D9    D(6,5,7,8)           -120.0            estimate D2E/DX2                !
 ! D10   D(6,5,7,9)              0.0            estimate D2E/DX2                !
 ! D11   D(5,7,9,10)           180.0            estimate D2E/DX2                !
 ! D12   D(5,7,9,11)           -60.0            estimate D2E/DX2                !
 ! D13   D(5,7,9,12)            60.0            estimate D2E/DX2                !
 ! D14   D(8,7,9,10)           -60.0            estimate D2E/DX2                !
 ! D15   D(8,7,9,11)            60.0            estimate D2E/DX2                !
 ! D16   D(8,7,9,12)           180.0            estimate D2E/DX2                !
 --------------------------------------------------------------------------------
 Trust Radius=3.00D-01 FncErr=1.00D-07 GrdErr=1.00D-07
 Number of optimizations in scan=  13
 Number of steps in this run=     55 maximum allowed number of steps=    100.
 GradGradGradGradGradGradGradGradGradGradGradGradGradGradGradGradGradGrad

                          Input orientation:                          
 ---------------------------------------------------------------------
 Center     Atomic      Atomic             Coordinates (Angstroms)
 Number     Number       Type             X           Y           Z
 ---------------------------------------------------------------------
      1          6           0        0.000000    0.000000    0.000000
      2          1           0        0.000000    0.000000    1.070000
      3          1           0        1.008806    0.000000   -0.356667
      4          1           0       -0.504403   -0.873651   -0.356667
      5          6           0       -0.725963    1.257405   -0.513333
      6          8           0       -0.707971    2.316048    0.166757
      7          7           0       -1.439945    1.221001   -1.797780
      8          1           0       -2.157851    0.525860   -1.760505
      9          6           0       -2.043701    2.535349   -2.060209
     10          1           0       -2.563402    2.508851   -2.995147
     11          1           0       -2.731627    2.774747   -1.276407
     12          1           0       -1.275542    3.279150   -2.100094
 ---------------------------------------------------------------------
                    Distance matrix (angstroms):
                    1          2          3          4          5
     1  C    0.000000
     2  H    1.070000   0.000000
     3  H    1.070000   1.747303   0.000000
     4  H    1.070000   1.747303   1.747303   0.000000
     5  C    1.540000   2.148263   2.148263   2.148263   0.000000
     6  O    2.427572   2.584792   2.930080   3.238764   1.258400
     7  N    2.606971   3.433431   3.092577   2.709173   1.470000
     8  H    2.834119   3.597862   3.503571   2.581334   2.034920
     9  C    3.853462   4.516959   4.318315   4.110083   2.400500
    10  H    4.672929   5.421327   5.100645   4.758401   3.331921
    11  H    4.097588   4.546057   4.747208   4.372329   2.628174
    12  H    4.097588   4.735961   4.360115   4.569459   2.628174
                    6          7          8          9         10
     6  O    0.000000
     7  N    2.365231   0.000000
     8  H    3.003542   1.000000   0.000000
     9  C    2.606079   1.470000   2.034920   0.000000
    10  H    3.671162   2.086720   2.370879   1.070000   0.000000
    11  H    2.527511   2.086720   2.370879   1.070000   1.747303
    12  H    2.527511   2.086720   2.911082   1.070000   1.747303
                   11         12
    11  H    0.000000
    12  H    1.747303   0.000000
 Stoichiometry    C3H7NO
 Framework group  C1[X(C3H7NO)]
 Deg. of freedom    30
 Full point group                 C1      NOp   1
 Largest Abelian subgroup         C1      NOp   1
 Largest concise Abelian subgroup C1      NOp   1
                         Standard orientation:                         
 ---------------------------------------------------------------------
 Center     Atomic      Atomic             Coordinates (Angstroms)
 Number     Number       Type             X           Y           Z
 ---------------------------------------------------------------------
      1          6           0       -1.918863   -0.441503    0.030238
      2          1           0       -2.560268    0.220661   -0.512936
      3          1           0       -2.258773   -0.517160    1.041987
      4          1           0       -1.937176   -1.409424   -0.425496
      5          6           0       -0.480144    0.107448    0.011756
      6          8           0       -0.280952    1.348431   -0.050333
      7          7           0        0.660492   -0.818207    0.066642
      8          1           0        0.627215   -1.435189   -0.719631
      9          6           0        1.914904   -0.052439    0.035855
     10          1           0        2.745163   -0.726215    0.075807
     11          1           0        1.962116    0.518563   -0.867820
     12          1           0        1.950510    0.607732    0.877168
 ---------------------------------------------------------------------
 Rotational constants (GHZ):     10.0900954      3.7899995      2.8711262
 Standard basis: 6-31G(d) (6D, 7F)
 There are    89 symmetry adapted basis functions of A   symmetry.
 Integral buffers will be    262144 words long.
 Raffenetti 1 integral format.
 Two-electron integral symmetry is turned on.
    89 basis functions,   168 primitive gaussians,    89 cartesian basis functions
    20 alpha electrons       20 beta electrons
       nuclear repulsion energy       178.1604081330 Hartrees.
 NAtoms=   12 NActive=   12 NUniq=   12 SFac= 1.00D+00 NAtFMM=   60 NAOKFM=F Big=F
 One-electron integrals computed using PRISM.
 NBasis=    89 RedAO= T  NBF=    89
 NBsUse=    89 1.00D-06 NBFU=    89
 Harris functional with IExCor=  205 diagonalized for initial guess.
 ExpMin= 1.61D-01 ExpMax= 5.48D+03 ExpMxC= 8.25D+02 IAcc=1 IRadAn=         1 AccDes= 0.00D+00
 HarFok:  IExCor=  205 AccDes= 0.00D+00 IRadAn=         1 IDoV= 1
 ScaDFX=  1.000000  1.000000  1.000000  1.000000
 FoFCou: FMM=F IPFlag=           0 FMFlag=      100000 FMFlg1=           0
         NFxFlg=           0 DoJE=T BraDBF=F KetDBF=T FulRan=T
         Omega=  0.000000  0.000000  1.000000  0.000000  0.000000 ICntrl=     500 IOpCl=  0
         NMat0=    1 NMatS0=    1 NMatT0=    0 NMatD0=    1 NMtDS0=    0 NMtDT0=    0
         I1Cent=           4 NGrid=           0.
 Petite list used in FoFCou.
 Initial guess orbital symmetries:
       Occupied  (A) (A) (A) (A) (A) (A) (A) (A) (A) (A) (A) (A)
                 (A) (A) (A) (A) (A) (A) (A) (A)
       Virtual   (A) (A) (A) (A) (A) (A) (A) (A) (A) (A) (A) (A)
                 (A) (A) (A) (A) (A) (A) (A) (A) (A) (A) (A) (A)
                 (A) (A) (A) (A) (A) (A) (A) (A) (A) (A) (A) (A)
                 (A) (A) (A) (A) (A) (A) (A) (A) (A) (A) (A) (A)
                 (A) (A) (A) (A) (A) (A) (A) (A) (A) (A) (A) (A)
                 (A) (A) (A) (A) (A) (A) (A) (A) (A)
 The electronic state of the initial guess is 1-A.
 Requested convergence on RMS density matrix=1.00D-08 within 128 cycles.
 Requested convergence on MAX density matrix=1.00D-06.
 Requested convergence on             energy=1.00D-06.
 No special actions if energy rises.
 Keep R1 ints in memory in canonical form, NReq=8885025.
 SCF Done:  E(RHF) =  -246.979856919     A.U. after   15 cycles
             Convg  =    0.5292D-08             -V/T =  2.0028
 ExpMin= 1.61D-01 ExpMax= 5.48D+03 ExpMxC= 8.25D+02 IAcc=3 IRadAn=         5 AccDes= 0.00D+00
 HarFok:  IExCor=  205 AccDes= 0.00D+00 IRadAn=         5 IDoV=-2
 ScaDFX=  1.000000  1.000000  1.000000  1.000000
 Range of M.O.s used for correlation:     6    89
 NBasis=    89 NAE=    20 NBE=    20 NFC=     5 NFV=     0
 NROrb=     84 NOA=    15 NOB=    15 NVA=    69 NVB=    69
 Fully direct method using O(ONN) memory.
 JobTyp=1 Pass  1:  I=   6 to  10 NPSUse=  4 ParTrn=T ParDer=T DoDerP=T.
 JobTyp=1 Pass  2:  I=  11 to  15 NPSUse=  4 ParTrn=T ParDer=T DoDerP=T.
 JobTyp=1 Pass  3:  I=  16 to  20 NPSUse=  4 ParTrn=T ParDer=T DoDerP=T.
 Spin components of T(2) and E(2):
     alpha-alpha T2 =       0.2983535924D-01 E2=     -0.9312430487D-01
     alpha-beta  T2 =       0.1730409550D+00 E2=     -0.5442410949D+00
     beta-beta   T2 =       0.2983535924D-01 E2=     -0.9312430487D-01
 ANorm=    0.1110275494D+01
 E2 =    -0.7304897046D+00 EUMP2 =    -0.24771034662359D+03
          IDoAtm=111111111111
          Differentiating once with respect to electric field.
                with respect to dipole field.
          Differentiating once with respect to nuclear coordinates.
          Keep R1 ints in memory in canonical form, NReq=8842680.
          There are     1 degrees of freedom in the 1st order CPHF.  IDoFFX=0.
 LinEq1:  Iter=  0 NonCon=     1 RMS=6.80D-03 Max=1.32D-01
 AX will form     1 AO Fock derivatives at one time.
 LinEq1:  Iter=  1 NonCon=     1 RMS=2.54D-03 Max=3.61D-02
 LinEq1:  Iter=  2 NonCon=     1 RMS=8.88D-04 Max=1.28D-02
 LinEq1:  Iter=  3 NonCon=     1 RMS=3.73D-04 Max=5.56D-03
 LinEq1:  Iter=  4 NonCon=     1 RMS=8.34D-05 Max=1.11D-03
 LinEq1:  Iter=  5 NonCon=     1 RMS=3.30D-05 Max=4.16D-04
 LinEq1:  Iter=  6 NonCon=     1 RMS=1.22D-05 Max=2.38D-04
 LinEq1:  Iter=  7 NonCon=     1 RMS=3.29D-06 Max=4.86D-05
 LinEq1:  Iter=  8 NonCon=     1 RMS=8.12D-07 Max=8.31D-06
 LinEq1:  Iter=  9 NonCon=     1 RMS=2.65D-07 Max=3.57D-06
 LinEq1:  Iter= 10 NonCon=     1 RMS=8.23D-08 Max=8.49D-07
 LinEq1:  Iter= 11 NonCon=     1 RMS=2.03D-08 Max=1.85D-07
 LinEq1:  Iter= 12 NonCon=     1 RMS=3.66D-09 Max=1.83D-08
 LinEq1:  Iter= 13 NonCon=     1 RMS=7.74D-10 Max=7.53D-09
 LinEq1:  Iter= 14 NonCon=     1 RMS=2.27D-10 Max=1.87D-09
 LinEq1:  Iter= 15 NonCon=     0 RMS=6.50D-11 Max=5.92D-10
 Linear equations converged to 1.000D-10 1.000D-09 after    15 iterations.
 End of Minotr Frequency-dependent properties file   721 does not exist.
 End of Minotr Frequency-dependent properties file   722 does not exist.

 **********************************************************************

            Population analysis using the SCF density.

 **********************************************************************

 Orbital symmetries:
       Occupied  (A) (A) (A) (A) (A) (A) (A) (A) (A) (A) (A) (A)
                 (A) (A) (A) (A) (A) (A) (A) (A)
       Virtual   (A) (A) (A) (A) (A) (A) (A) (A) (A) (A) (A) (A)
                 (A) (A) (A) (A) (A) (A) (A) (A) (A) (A) (A) (A)
                 (A) (A) (A) (A) (A) (A) (A) (A) (A) (A) (A) (A)
                 (A) (A) (A) (A) (A) (A) (A) (A) (A) (A) (A) (A)
                 (A) (A) (A) (A) (A) (A) (A) (A) (A) (A) (A) (A)
                 (A) (A) (A) (A) (A) (A) (A) (A) (A)
 The electronic state is 1-A.
 Alpha  occ. eigenvalues --  -20.54522 -15.58361 -11.36785 -11.24036 -11.23966
 Alpha  occ. eigenvalues --   -1.36274  -1.20557  -1.01580  -0.91915  -0.76694
 Alpha  occ. eigenvalues --   -0.68044  -0.64116  -0.62657  -0.59657  -0.57481
 Alpha  occ. eigenvalues --   -0.55281  -0.53371  -0.48964  -0.42960  -0.40126
 Alpha virt. eigenvalues --    0.16417   0.21904   0.26774   0.29013   0.30397
 Alpha virt. eigenvalues --    0.32176   0.32646   0.34508   0.37509   0.39743
 Alpha virt. eigenvalues --    0.48878   0.52698   0.71927   0.74121   0.75795
 Alpha virt. eigenvalues --    0.78294   0.81153   0.85648   0.86564   0.91431
 Alpha virt. eigenvalues --    0.96562   0.97336   1.04189   1.09261   1.11855
 Alpha virt. eigenvalues --    1.14952   1.17632   1.18928   1.20258   1.21147
 Alpha virt. eigenvalues --    1.22784   1.25526   1.27235   1.31090   1.35499
 Alpha virt. eigenvalues --    1.43405   1.58230   1.63932   1.66360   1.71914
 Alpha virt. eigenvalues --    1.88194   1.92211   2.03168   2.08499   2.10115
 Alpha virt. eigenvalues --    2.17316   2.21031   2.26343   2.28991   2.35597
 Alpha virt. eigenvalues --    2.42183   2.46198   2.53684   2.59934   2.63158
 Alpha virt. eigenvalues --    2.66456   2.68463   2.75164   2.86854   2.92241
 Alpha virt. eigenvalues --    2.95055   3.14770   3.30133   3.34119   4.32053
 Alpha virt. eigenvalues --    4.37827   4.53782   4.71401   4.82546
          Condensed to atoms (all electrons):
              1          2          3          4          5          6
     1  C    5.176546   0.385473   0.382732   0.376018   0.361699  -0.064509
     2  H    0.385473   0.468934  -0.018181  -0.024665  -0.030626   0.002233
     3  H    0.382732  -0.018181   0.468731  -0.022080  -0.025503  -0.000263
     4  H    0.376018  -0.024665  -0.022080   0.525785  -0.036880   0.002494
     5  C    0.361699  -0.030626  -0.025503  -0.036880   4.322801   0.538145
     6  O   -0.064509   0.002233  -0.000263   0.002494   0.538145   8.181443
     7  N   -0.078814   0.002550   0.001453   0.003351   0.284810  -0.086903
     8  H   -0.000388  -0.000257   0.000074   0.000860  -0.021166   0.001701
     9  C    0.004320  -0.000094  -0.000114  -0.000097  -0.048712  -0.000194
    10  H   -0.000025   0.000001   0.000001  -0.000010   0.004869   0.000804
    11  H   -0.000010   0.000023  -0.000005  -0.000003  -0.004101   0.003645
    12  H    0.000037  -0.000008   0.000006  -0.000002  -0.004137   0.002063
              7          8          9         10         11         12
     1  C   -0.078814  -0.000388   0.004320  -0.000025  -0.000010   0.000037
     2  H    0.002550  -0.000257  -0.000094   0.000001   0.000023  -0.000008
     3  H    0.001453   0.000074  -0.000114   0.000001  -0.000005   0.000006
     4  H    0.003351   0.000860  -0.000097  -0.000010  -0.000003  -0.000002
     5  C    0.284810  -0.021166  -0.048712   0.004869  -0.004101  -0.004137
     6  O   -0.086903   0.001701  -0.000194   0.000804   0.003645   0.002063
     7  N    7.191491   0.317886   0.230896  -0.036214  -0.051595  -0.034135
     8  H    0.317886   0.373987  -0.033069  -0.002623  -0.001959   0.004080
     9  C    0.230896  -0.033069   4.939701   0.393373   0.406993   0.404047
    10  H   -0.036214  -0.002623   0.393373   0.531001  -0.034851  -0.024888
    11  H   -0.051595  -0.001959   0.406993  -0.034851   0.536732  -0.028841
    12  H   -0.034135   0.004080   0.404047  -0.024888  -0.028841   0.481422
 Mulliken atomic charges:
              1
     1  C   -0.543079
     2  H    0.214618
     3  H    0.213150
     4  H    0.175229
     5  C    0.658803
     6  O   -0.580659
     7  N   -0.744775
     8  H    0.360876
     9  C   -0.297050
    10  H    0.168561
    11  H    0.173970
    12  H    0.200355
 Sum of Mulliken atomic charges =   0.00000
 Mulliken charges with hydrogens summed into heavy atoms:
              1
     1  C    0.059918
     5  C    0.658803
     6  O   -0.580659
     7  N   -0.383898
     9  C    0.245836
 Sum of Mulliken charges with hydrogens summed into heavy atoms =   0.00000
 Electronic spatial extent (au):  <R**2>=            460.3582
 Charge=              0.0000 electrons
 Dipole moment (field-independent basis, Debye):
    X=             -0.3307    Y=             -2.7641    Z=             -1.0170  Tot=              2.9638
 Quadrupole moment (field-independent basis, Debye-Ang):
   XX=            -26.2651   YY=            -35.5604   ZZ=            -29.9212
   XY=              1.2265   XZ=             -0.8629   YZ=              2.5186
 Traceless Quadrupole moment (field-independent basis, Debye-Ang):
   XX=              4.3171   YY=             -4.9782   ZZ=              0.6610
   XY=              1.2265   XZ=             -0.8629   YZ=              2.5186
 Octapole moment (field-independent basis, Debye-Ang**2):
  XXX=             -0.6686  YYY=             -4.9423  ZZZ=             -0.8279  XYY=              1.6993
  XXY=              0.0524  XXZ=              0.2259  XZZ=             -0.8327  YZZ=              0.9223
  YYZ=             -3.7468  XYZ=              1.9512
 Hexadecapole moment (field-independent basis, Debye-Ang**3):
 XXXX=           -392.1970 YYYY=           -147.7554 ZZZZ=            -41.5145 XXXY=             -5.8249
 XXXZ=              0.4954 YYYX=              0.3455 YYYZ=              7.1187 ZZZX=             -2.6694
 ZZZY=              2.2023 XXYY=            -91.0812 XXZZ=            -72.9655 YYZZ=            -29.5203
 XXYZ=              0.1867 YYXZ=             -1.1832 ZZXY=              0.5869
 N-N= 1.781604081330D+02 E-N=-9.350220584466D+02  KE= 2.462884742588D+02
 Calling FoFJK, ICntrl=      2127 FMM=F ISym2X=0 I1Cent= 0 IOpClX= 0 NMat=1 NMatS=1 NMatT=0.
 ***** Axes restored to original set *****
 -------------------------------------------------------------------
 Center     Atomic                   Forces (Hartrees/Bohr)
 Number     Number              X              Y              Z
 -------------------------------------------------------------------
      1        6          -0.023396458    0.020379427   -0.019214792
      2        1          -0.000375729    0.003788263    0.014028472
      3        1           0.014920705   -0.000197308   -0.006670160
      4        1          -0.004561095   -0.016064832   -0.006406411
      5        6          -0.015682202    0.028909362    0.013088223
      6        8           0.006598431   -0.035008067   -0.027739614
      7        7           0.035251117    0.016424882    0.037561886
      8        1          -0.006808290   -0.019494275   -0.003632084
      9        6           0.001807126   -0.015626125    0.002514634
     10        1          -0.006113093   -0.002977637   -0.014820211
     11        1          -0.011030490    0.010923346    0.011145180
     12        1           0.009389978    0.008942964    0.000144877
 -------------------------------------------------------------------
 Cartesian Forces:  Max     0.037561886 RMS     0.016530922

 GradGradGradGradGradGradGradGradGradGradGradGradGradGradGradGradGradGrad
 Berny optimization.
 Internal  Forces:  Max     0.044348178 RMS     0.012659802
 Search for a local minimum.
 Step number   1 out of a maximum of   55 on scan point     1 out of    13
 All quantities printed in internal units (Hartrees-Bohrs-Radians)
 Mixed Optimization -- RFO/linear search
 Second derivative matrix not updated -- first step.
 ITU=  0
     Eigenvalues ---    0.00237   0.00537   0.00766   0.02883   0.07243
     Eigenvalues ---    0.07243   0.07537   0.07537   0.10283   0.16000
     Eigenvalues ---    0.16000   0.16000   0.16000   0.16000   0.16000
     Eigenvalues ---    0.23441   0.25000   0.25000   0.28519   0.35740
     Eigenvalues ---    0.35740   0.37230   0.37230   0.37230   0.37230
     Eigenvalues ---    0.37230   0.37230   0.47688   0.802091000.00000
     Eigenvalues --- 1000.000001000.000001000.000001000.000001000.00000
     Eigenvalues --- 1000.000001000.000001000.000001000.000001000.00000
     Eigenvalues --- 1000.000001000.000001000.000001000.000001000.00000
 RFO step:  Lambda=-2.23611414D-02 EMin= 2.36824121D-03
 Linear search not attempted -- first point.
 Iteration  1 RMS(Cart)=  0.09197510 RMS(Int)=  0.00800891
 Iteration  2 RMS(Cart)=  0.01067033 RMS(Int)=  0.00122543
 Iteration  3 RMS(Cart)=  0.00009507 RMS(Int)=  0.00122313
 Iteration  4 RMS(Cart)=  0.00000021 RMS(Int)=  0.00122313
 Iteration  1 RMS(Cart)=  0.00001326 RMS(Int)=  0.00000663
 Iteration  2 RMS(Cart)=  0.00000697 RMS(Int)=  0.00000741
 Iteration  3 RMS(Cart)=  0.00000366 RMS(Int)=  0.00000833
 Iteration  4 RMS(Cart)=  0.00000192 RMS(Int)=  0.00000892
 Iteration  5 RMS(Cart)=  0.00000101 RMS(Int)=  0.00000925
 Iteration  6 RMS(Cart)=  0.00000053 RMS(Int)=  0.00000942
 Variable       Old X    -DE/DX   Delta X   Delta X   Delta X     New X
                                 (Linear)    (Quad)   (Total)
    R1        2.02201   0.01403   0.00000   0.03555   0.03555   2.05755
    R2        2.02201   0.01629   0.00000   0.04128   0.04128   2.06328
    R3        2.02201   0.01740   0.00000   0.04409   0.04409   2.06610
    R4        2.91018  -0.01887   0.00000  -0.06134  -0.06134   2.84884
    R5        2.37803  -0.04435   0.00000  -0.05379  -0.05379   2.32424
    R6        2.77790  -0.03964   0.00000  -0.10438  -0.10438   2.67351
    R7        1.88973   0.01830   0.00000   0.03666   0.03666   1.92639
    R8        2.77790   0.00375   0.00000   0.00988   0.00988   2.78778
    R9        2.02201   0.01599   0.00000   0.04052   0.04052   2.06253
   R10        2.02201   0.01770   0.00000   0.04485   0.04485   2.06686
   R11        2.02201   0.01295   0.00000   0.03282   0.03282   2.05483
    A1        1.91063   0.00169   0.00000   0.00239   0.00200   1.91264
    A2        1.91063   0.00158   0.00000   0.01642   0.01658   1.92721
    A3        1.91063  -0.00538   0.00000  -0.02906  -0.02915   1.88148
    A4        1.91063  -0.00252   0.00000  -0.01470  -0.01463   1.89600
    A5        1.91063  -0.00140   0.00000  -0.01155  -0.01169   1.89894
    A6        1.91063   0.00603   0.00000   0.03650   0.03662   1.94725
    A7        2.09440   0.01063   0.00000   0.03902   0.03558   2.12997
    A8        2.09440  -0.02201   0.00000  -0.08081  -0.08426   2.01013
    A9        2.09440   0.01138   0.00000   0.04179   0.03829   2.13269
   A10        1.91063  -0.00467   0.00000   0.00710   0.00334   1.91397
   A11        1.91063   0.01617   0.00000   0.07526   0.07302   1.98365
   A12        1.91063  -0.00008   0.00000   0.03796   0.03555   1.94618
   A13        1.91063  -0.00583   0.00000  -0.03307  -0.03326   1.87737
   A14        1.91063   0.01135   0.00000   0.06740   0.06748   1.97812
   A15        1.91063  -0.00192   0.00000  -0.01453  -0.01484   1.89579
   A16        1.91063  -0.00065   0.00000   0.00447   0.00466   1.91530
   A17        1.91063   0.00117   0.00000  -0.00389  -0.00453   1.90610
   A18        1.91063  -0.00413   0.00000  -0.02037  -0.02041   1.89023
    D1        0.52360   0.00043   0.00000   0.05761   0.05768   0.58127
    D2       -2.61799  -0.00350   0.00000  -0.09405  -0.09367  -2.71166
    D3       -1.57080   0.00251   0.00000   0.07956   0.07921  -1.49159
    D4        1.57080  -0.00142   0.00000  -0.07211  -0.07213   1.49866
    D5        2.61799   0.00276   0.00000   0.08228   0.08208   2.70007
    D6       -0.52360  -0.00117   0.00000  -0.06939  -0.06926  -0.59286
    D7        1.04720  -0.00541   0.00000  -0.09692  -0.09705   0.95015
    D8        3.14159   0.00153   0.00000   0.00000   0.00000  -3.14159
    D9       -2.09440  -0.00934   0.00000  -0.24859  -0.24865  -2.34305
   D10        0.00000  -0.00240   0.00000  -0.15166  -0.15160  -0.15160
   D11        3.14159  -0.00379   0.00000  -0.05107  -0.05162   3.08997
   D12       -1.04720  -0.00120   0.00000  -0.02458  -0.02557  -1.07277
   D13        1.04720  -0.00048   0.00000  -0.01716  -0.01831   1.02889
   D14       -1.04720   0.00034   0.00000   0.02695   0.02819  -1.01900
   D15        1.04720   0.00293   0.00000   0.05344   0.05424   1.10144
   D16        3.14159   0.00365   0.00000   0.06086   0.06150  -3.08009
         Item               Value     Threshold  Converged?
 Maximum Force            0.044348     0.000450     NO 
 RMS     Force            0.012799     0.000300     NO 
 Maximum Displacement     0.212812     0.001800     NO 
 RMS     Displacement     0.099585     0.001200     NO 
 Predicted change in Energy=-1.339980D-02
 GradGradGradGradGradGradGradGradGradGradGradGradGradGradGradGradGradGrad

                          Input orientation:                          
 ---------------------------------------------------------------------
 Center     Atomic      Atomic             Coordinates (Angstroms)
 Number     Number       Type             X           Y           Z
 ---------------------------------------------------------------------
      1          6           0       -0.049961    0.010284   -0.035760
      2          1           0        0.018454   -0.006352    1.050771
      3          1           0        0.953581    0.002790   -0.465842
      4          1           0       -0.591565   -0.867934   -0.397389
      5          6           0       -0.739926    1.289965   -0.434559
      6          8           0       -0.602196    2.331941    0.204235
      7          7           0       -1.393646    1.255539   -1.688759
      8          1           0       -2.045934    0.472563   -1.714199
      9          6           0       -2.057047    2.523985   -2.045475
     10          1           0       -2.479666    2.405036   -3.044721
     11          1           0       -2.844242    2.813595   -1.343549
     12          1           0       -1.309451    3.313348   -2.064805
 ---------------------------------------------------------------------
                    Distance matrix (angstroms):
                    1          2          3          4          5
     1  C    0.000000
     2  H    1.088810   0.000000
     3  H    1.091843   1.781758   0.000000
     4  H    1.093334   1.792098   1.774914   0.000000
     5  C    1.507540   2.112294   2.127385   2.163313   0.000000
     6  O    2.398468   2.563093   2.879998   3.255958   1.229935
     7  N    2.467500   3.330379   2.928204   2.611534   1.414762
     8  H    2.648541   3.483693   3.282707   2.376154   2.002818
     9  C    3.792893   4.505225   4.232675   4.045854   2.419227
    10  H    4.548862   5.369213   4.920222   4.613634   3.329117
    11  H    4.168557   4.677596   4.805669   4.418532   2.752427
    12  H    4.075974   4.742421   4.317150   4.558372   2.660100
                    6          7          8          9         10
     6  O    0.000000
     7  N    2.316993   0.000000
     8  H    3.036783   1.019401   0.000000
     9  C    2.686012   1.475229   2.078028   0.000000
    10  H    3.753125   2.083126   2.385972   1.091443   0.000000
    11  H    2.766658   2.156603   2.501021   1.093733   1.787126
    12  H    2.571363   2.093579   2.955569   1.087367   1.776139
                   11         12
    11  H    0.000000
    12  H    1.767922   0.000000
 Stoichiometry    C3H7NO
 Framework group  C1[X(C3H7NO)]
 Deg. of freedom    30
 Full point group                 C1      NOp   1
 Largest Abelian subgroup         C1      NOp   1
 Largest concise Abelian subgroup C1      NOp   1
                         Standard orientation:                         
 ---------------------------------------------------------------------
 Center     Atomic      Atomic             Coordinates (Angstroms)
 Number     Number       Type             X           Y           Z
 ---------------------------------------------------------------------
      1          6           0       -1.843737   -0.494189    0.025328
      2          1           0       -2.542804    0.157262   -0.496615
      3          1           0       -2.141280   -0.586819    1.071755
      4          1           0       -1.840236   -1.489878   -0.426304
      5          6           0       -0.481065    0.147586   -0.037345
      6          8           0       -0.333744    1.368607   -0.025292
      7          7           0        0.610355   -0.744554    0.082814
      8          1           0        0.528376   -1.482822   -0.615339
      9          6           0        1.926654   -0.081728    0.017080
     10          1           0        2.689024   -0.847191    0.172338
     11          1           0        2.106415    0.431520   -0.931874
     12          1           0        1.986859    0.650929    0.818302
 ---------------------------------------------------------------------
 Rotational constants (GHZ):      9.9851408      3.9046050      2.9261092
 Standard basis: 6-31G(d) (6D, 7F)
 There are    89 symmetry adapted basis functions of A   symmetry.
 Integral buffers will be    262144 words long.
 Raffenetti 1 integral format.
 Two-electron integral symmetry is turned on.
    89 basis functions,   168 primitive gaussians,    89 cartesian basis functions
    20 alpha electrons       20 beta electrons
       nuclear repulsion energy       179.5808436163 Hartrees.
 NAtoms=   12 NActive=   12 NUniq=   12 SFac= 1.00D+00 NAtFMM=   60 NAOKFM=F Big=F
 One-electron integrals computed using PRISM.
 NBasis=    89 RedAO= T  NBF=    89
 NBsUse=    89 1.00D-06 NBFU=    89
 Initial guess read from the read-write file.
 B after Tr=     0.000000    0.000000    0.000000
         Rot=    1.000000    0.000000    0.000000    0.000000 Ang=   0.00 deg.
 Initial guess orbital symmetries:
       Occupied  (A) (A) (A) (A) (A) (A) (A) (A) (A) (A) (A) (A)
                 (A) (A) (A) (A) (A) (A) (A) (A)
       Virtual   (A) (A) (A) (A) (A) (A) (A) (A) (A) (A) (A) (A)
                 (A) (A) (A) (A) (A) (A) (A) (A) (A) (A) (A) (A)
                 (A) (A) (A) (A) (A) (A) (A) (A) (A) (A) (A) (A)
                 (A) (A) (A) (A) (A) (A) (A) (A) (A) (A) (A) (A)
                 (A) (A) (A) (A) (A) (A) (A) (A) (A) (A) (A) (A)
                 (A) (A) (A) (A) (A) (A) (A) (A) (A)
 Harris functional with IExCor=  205 diagonalized for initial guess.
 ExpMin= 1.61D-01 ExpMax= 5.48D+03 ExpMxC= 8.25D+02 IAcc=1 IRadAn=         1 AccDes= 0.00D+00
 HarFok:  IExCor=  205 AccDes= 0.00D+00 IRadAn=         1 IDoV= 1
 ScaDFX=  1.000000  1.000000  1.000000  1.000000
 FoFCou: FMM=F IPFlag=           0 FMFlag=      100000 FMFlg1=           0
         NFxFlg=           0 DoJE=T BraDBF=F KetDBF=T FulRan=T
         Omega=  0.000000  0.000000  1.000000  0.000000  0.000000 ICntrl=     500 IOpCl=  0
         NMat0=    1 NMatS0=    1 NMatT0=    0 NMatD0=    1 NMtDS0=    0 NMtDT0=    0
         I1Cent=           4 NGrid=           0.
 Petite list used in FoFCou.
 Requested convergence on RMS density matrix=1.00D-08 within 128 cycles.
 Requested convergence on MAX density matrix=1.00D-06.
 Requested convergence on             energy=1.00D-06.
 No special actions if energy rises.
 Keep R1 ints in memory in canonical form, NReq=8885025.
 SCF Done:  E(RHF) =  -246.995265826     A.U. after   14 cycles
             Convg  =    0.4118D-08             -V/T =  2.0028
 ExpMin= 1.61D-01 ExpMax= 5.48D+03 ExpMxC= 8.25D+02 IAcc=3 IRadAn=         5 AccDes= 0.00D+00
 HarFok:  IExCor=  205 AccDes= 0.00D+00 IRadAn=         5 IDoV=-2
 ScaDFX=  1.000000  1.000000  1.000000  1.000000
 Range of M.O.s used for correlation:     6    89
 NBasis=    89 NAE=    20 NBE=    20 NFC=     5 NFV=     0
 NROrb=     84 NOA=    15 NOB=    15 NVA=    69 NVB=    69
 Fully direct method using O(ONN) memory.
 JobTyp=1 Pass  1:  I=   6 to  10 NPSUse=  4 ParTrn=T ParDer=T DoDerP=T.
 JobTyp=1 Pass  2:  I=  11 to  15 NPSUse=  4 ParTrn=T ParDer=T DoDerP=T.
 JobTyp=1 Pass  3:  I=  16 to  20 NPSUse=  4 ParTrn=T ParDer=T DoDerP=T.
 Spin components of T(2) and E(2):
     alpha-alpha T2 =       0.2947698491D-01 E2=     -0.9291437055D-01
     alpha-beta  T2 =       0.1712127596D+00 E2=     -0.5424009722D+00
     beta-beta   T2 =       0.2947698491D-01 E2=     -0.9291437055D-01
 ANorm=    0.1109128816D+01
 E2 =    -0.7282297133D+00 EUMP2 =    -0.24772349553953D+03
          IDoAtm=111111111111
          Differentiating once with respect to electric field.
                with respect to dipole field.
          Differentiating once with respect to nuclear coordinates.
          Keep R1 ints in memory in canonical form, NReq=8842680.
          There are     1 degrees of freedom in the 1st order CPHF.  IDoFFX=0.
 LinEq1:  Iter=  0 NonCon=     1 RMS=6.55D-03 Max=1.16D-01
 AX will form     1 AO Fock derivatives at one time.
 LinEq1:  Iter=  1 NonCon=     1 RMS=2.37D-03 Max=3.27D-02
 LinEq1:  Iter=  2 NonCon=     1 RMS=7.87D-04 Max=1.04D-02
 LinEq1:  Iter=  3 NonCon=     1 RMS=3.42D-04 Max=5.39D-03
 LinEq1:  Iter=  4 NonCon=     1 RMS=6.91D-05 Max=6.10D-04
 LinEq1:  Iter=  5 NonCon=     1 RMS=2.77D-05 Max=2.84D-04
 LinEq1:  Iter=  6 NonCon=     1 RMS=9.58D-06 Max=1.80D-04
 LinEq1:  Iter=  7 NonCon=     1 RMS=2.57D-06 Max=4.19D-05
 LinEq1:  Iter=  8 NonCon=     1 RMS=6.31D-07 Max=6.87D-06
 LinEq1:  Iter=  9 NonCon=     1 RMS=1.92D-07 Max=2.16D-06
 LinEq1:  Iter= 10 NonCon=     1 RMS=5.95D-08 Max=4.44D-07
 LinEq1:  Iter= 11 NonCon=     1 RMS=1.57D-08 Max=1.58D-07
 LinEq1:  Iter= 12 NonCon=     1 RMS=3.16D-09 Max=1.77D-08
 LinEq1:  Iter= 13 NonCon=     1 RMS=6.99D-10 Max=4.56D-09
 LinEq1:  Iter= 14 NonCon=     1 RMS=1.86D-10 Max=1.32D-09
 LinEq1:  Iter= 15 NonCon=     0 RMS=5.58D-11 Max=4.05D-10
 Linear equations converged to 1.000D-10 1.000D-09 after    15 iterations.
 End of Minotr Frequency-dependent properties file   721 does not exist.
 End of Minotr Frequency-dependent properties file   722 does not exist.
 Calling FoFJK, ICntrl=      2127 FMM=F ISym2X=0 I1Cent= 0 IOpClX= 0 NMat=1 NMatS=1 NMatT=0.
 ***** Axes restored to original set *****
 -------------------------------------------------------------------
 Center     Atomic                   Forces (Hartrees/Bohr)
 Number     Number              X              Y              Z
 -------------------------------------------------------------------
      1        6          -0.008081886   -0.001943648    0.000677986
      2        1           0.001863007   -0.002047322    0.000932824
      3        1           0.000418189   -0.000060945   -0.000151683
      4        1           0.001760275   -0.001372668    0.000707415
      5        6           0.003556436    0.007319960   -0.011647567
      6        8          -0.000283483   -0.001472804   -0.002386462
      7        7          -0.006202273    0.008578484    0.020866176
      8        1           0.004907098   -0.003196485   -0.006932385
      9        6           0.001673684   -0.006532267   -0.003567330
     10        1          -0.000509245    0.000681180    0.000012660
     11        1          -0.000044093   -0.000181728    0.001227994
     12        1           0.000942292    0.000228244    0.000260373
 -------------------------------------------------------------------
 Cartesian Forces:  Max     0.020866176 RMS     0.005230506

 GradGradGradGradGradGradGradGradGradGradGradGradGradGradGradGradGradGrad
 Berny optimization.
 Using GEDIIS/GDIIS optimizer.
 Internal  Forces:  Max     0.010864977 RMS     0.002727297
 Search for a local minimum.
 Step number   2 out of a maximum of   55 on scan point     1 out of    13
 All quantities printed in internal units (Hartrees-Bohrs-Radians)
 Mixed Optimization -- RFO/linear search
 Update second derivatives using D2CorX and points    1    2
 DE= -1.31D-02 DEPred=-1.34D-02 R= 9.81D-01
 SS=  1.41D+00  RLast= 4.41D-01 DXNew= 5.0454D-01 1.3239D+00
 Trust test= 9.81D-01 RLast= 4.41D-01 DXMaxT set to 5.05D-01
 ITU=  1  0
 Use linear search instead of GDIIS.
     Eigenvalues ---    0.00237   0.00723   0.00766   0.02133   0.07032
     Eigenvalues ---    0.07134   0.07436   0.07804   0.11235   0.15663
     Eigenvalues ---    0.16000   0.16000   0.16000   0.16000   0.16698
     Eigenvalues ---    0.22691   0.24250   0.24820   0.29357   0.31970
     Eigenvalues ---    0.36000   0.37218   0.37230   0.37230   0.37230
     Eigenvalues ---    0.37230   0.38474   0.47980   0.793381000.00000
     Eigenvalues --- 1000.000001000.000001000.000001000.000001000.00000
     Eigenvalues --- 1000.000001000.000001000.000001000.000001000.00000
     Eigenvalues --- 1000.000001000.000001000.000001000.000001000.00000
 RFO step:  Lambda=-4.20780706D-03 EMin= 2.36797364D-03
 Quartic linear search produced a step of  0.16532.
 Iteration  1 RMS(Cart)=  0.05081854 RMS(Int)=  0.00439438
 Iteration  2 RMS(Cart)=  0.00515682 RMS(Int)=  0.00259359
 Iteration  3 RMS(Cart)=  0.00001091 RMS(Int)=  0.00259358
 Iteration  4 RMS(Cart)=  0.00000003 RMS(Int)=  0.00259358
 Iteration  1 RMS(Cart)=  0.00032829 RMS(Int)=  0.00016927
 Iteration  2 RMS(Cart)=  0.00017491 RMS(Int)=  0.00018916
 Iteration  3 RMS(Cart)=  0.00009318 RMS(Int)=  0.00021308
 Iteration  4 RMS(Cart)=  0.00004964 RMS(Int)=  0.00022844
 Iteration  5 RMS(Cart)=  0.00002644 RMS(Int)=  0.00023720
 Iteration  6 RMS(Cart)=  0.00001409 RMS(Int)=  0.00024201
 Iteration  7 RMS(Cart)=  0.00000750 RMS(Int)=  0.00024462
 Iteration  8 RMS(Cart)=  0.00000400 RMS(Int)=  0.00024601
 Iteration  9 RMS(Cart)=  0.00000213 RMS(Int)=  0.00024676
 Iteration 10 RMS(Cart)=  0.00000113 RMS(Int)=  0.00024716
 Iteration 11 RMS(Cart)=  0.00000060 RMS(Int)=  0.00024737
 Variable       Old X    -DE/DX   Delta X   Delta X   Delta X     New X
                                 (Linear)    (Quad)   (Total)
    R1        2.05755   0.00108   0.00588   0.00298   0.00886   2.06641
    R2        2.06328   0.00044   0.00682   0.00097   0.00779   2.07108
    R3        2.06610   0.00000   0.00729  -0.00044   0.00685   2.07295
    R4        2.84884   0.00333  -0.01014   0.01421   0.00407   2.85290
    R5        2.32424  -0.00252  -0.00889  -0.00350  -0.01239   2.31185
    R6        2.67351  -0.01086  -0.01726  -0.03382  -0.05107   2.62244
    R7        1.92639  -0.00051   0.00606  -0.00148   0.00458   1.93097
    R8        2.78778  -0.00542   0.00163  -0.01750  -0.01587   2.77191
    R9        2.06253   0.00011   0.00670  -0.00005   0.00665   2.06918
   R10        2.06686   0.00077   0.00741   0.00194   0.00936   2.07621
   R11        2.05483   0.00081   0.00543   0.00218   0.00760   2.06243
    A1        1.91264  -0.00163   0.00033  -0.01493  -0.01458   1.89806
    A2        1.92721  -0.00218   0.00274  -0.00879  -0.00661   1.92061
    A3        1.88148   0.00349  -0.00482   0.02757   0.02244   1.90392
    A4        1.89600  -0.00139  -0.00242  -0.01336  -0.01566   1.88035
    A5        1.89894  -0.00135  -0.00193  -0.01292  -0.01478   1.88416
    A6        1.94725   0.00302   0.00605   0.02190   0.02772   1.97496
    A7        2.12997   0.00308   0.00588   0.01610   0.02086   2.15083
    A8        2.01013  -0.00281  -0.01393  -0.00775  -0.02287   1.98726
    A9        2.13269  -0.00005   0.00633   0.00397   0.00903   2.14171
   A10        1.91397   0.00163   0.00055   0.07550   0.06580   1.97977
   A11        1.98365   0.00353   0.01207   0.04583   0.04928   2.03293
   A12        1.94618  -0.00019   0.00588   0.06837   0.06392   2.01010
   A13        1.87737   0.00175  -0.00550   0.01573   0.01020   1.88757
   A14        1.97812  -0.00139   0.01116  -0.01315  -0.00202   1.97610
   A15        1.89579  -0.00092  -0.00245  -0.00730  -0.00983   1.88597
   A16        1.91530   0.00008   0.00077   0.00235   0.00313   1.91843
   A17        1.90610   0.00004  -0.00075   0.00374   0.00291   1.90901
   A18        1.89023   0.00046  -0.00337  -0.00095  -0.00438   1.88584
    D1        0.58127  -0.00162   0.00953  -0.07352  -0.06466   0.51661
    D2       -2.71166  -0.00006  -0.01548   0.01577   0.00051  -2.71115
    D3       -1.49159  -0.00090   0.01309  -0.06414  -0.05154  -1.54313
    D4        1.49866   0.00065  -0.01192   0.02515   0.01363   1.51229
    D5        2.70007  -0.00017   0.01357  -0.05272  -0.03933   2.66074
    D6       -0.59286   0.00139  -0.01145   0.03657   0.02584  -0.56702
    D7        0.95015  -0.00584  -0.01604  -0.18508  -0.20318   0.74697
    D8       -3.14159  -0.00214   0.00000   0.00000   0.00000  -3.14159
    D9       -2.34305  -0.00398  -0.04111  -0.09447  -0.13724  -2.48029
   D10       -0.15160  -0.00028  -0.02506   0.09061   0.06594  -0.08566
   D11        3.08997  -0.00217  -0.00853  -0.07886  -0.08852   3.00145
   D12       -1.07277  -0.00173  -0.00423  -0.07324  -0.07867  -1.15143
   D13        1.02889  -0.00269  -0.00303  -0.08802  -0.09222   0.93666
   D14       -1.01900   0.00262   0.00466   0.11318   0.11905  -0.89995
   D15        1.10144   0.00306   0.00897   0.11880   0.12891   1.23035
   D16       -3.08009   0.00210   0.01017   0.10402   0.11535  -2.96474
         Item               Value     Threshold  Converged?
 Maximum Force            0.010865     0.000450     NO 
 RMS     Force            0.002718     0.000300     NO 
 Maximum Displacement     0.140159     0.001800     NO 
 RMS     Displacement     0.050307     0.001200     NO 
 Predicted change in Energy=-3.040434D-03
 GradGradGradGradGradGradGradGradGradGradGradGradGradGradGradGradGradGrad

                          Input orientation:                          
 ---------------------------------------------------------------------
 Center     Atomic      Atomic             Coordinates (Angstroms)
 Number     Number       Type             X           Y           Z
 ---------------------------------------------------------------------
      1          6           0       -0.070660    0.014188   -0.042144
      2          1           0        0.058403   -0.021400    1.043127
      3          1           0        0.917100   -0.020480   -0.515720
      4          1           0       -0.635400   -0.862468   -0.382530
      5          6           0       -0.721863    1.322980   -0.419195
      6          8           0       -0.576917    2.353697    0.223662
      7          7           0       -1.413506    1.280017   -1.621522
      8          1           0       -1.971765    0.432287   -1.739102
      9          6           0       -2.069280    2.522377   -2.043537
     10          1           0       -2.445404    2.380579   -3.062048
     11          1           0       -2.890782    2.825627   -1.379998
     12          1           0       -1.321526    3.317355   -2.041045
 ---------------------------------------------------------------------
                    Distance matrix (angstroms):
                    1          2          3          4          5
     1  C    0.000000
     2  H    1.093498   0.000000
     3  H    1.095968   1.779709   0.000000
     4  H    1.096959   1.794786   1.771141   0.000000
     5  C    1.509692   2.134142   2.121415   2.187465   0.000000
     6  O    2.408371   2.591572   2.900947   3.273317   1.223377
     7  N    2.428990   3.310674   2.888913   2.594377   1.387734
     8  H    2.582377   3.473934   3.169732   2.302726   2.024289
     9  C    3.780352   4.530489   4.209372   4.033873   2.427462
    10  H    4.512098   5.375036   4.853381   4.579659   3.327728
    11  H    4.200849   4.761806   4.831901   4.436635   2.808078
    12  H    4.058470   4.750117   4.298745   4.548886   2.639607
                    6          7          8          9         10
     6  O    0.000000
     7  N    2.292896   0.000000
     8  H    3.080561   1.021824   0.000000
     9  C    2.719519   1.466831   2.114395   0.000000
    10  H    3.779927   2.085944   2.402157   1.094962   0.000000
    11  H    2.854542   2.151647   2.588750   1.098685   1.796028
    12  H    2.571376   2.082115   2.972810   1.091390   1.784124
                   11         12
    11  H    0.000000
    12  H    1.772383   0.000000
 Stoichiometry    C3H7NO
 Framework group  C1[X(C3H7NO)]
 Deg. of freedom    30
 Full point group                 C1      NOp   1
 Largest Abelian subgroup         C1      NOp   1
 Largest concise Abelian subgroup C1      NOp   1
                         Standard orientation:                         
 ---------------------------------------------------------------------
 Center     Atomic      Atomic             Coordinates (Angstroms)
 Number     Number       Type             X           Y           Z
 ---------------------------------------------------------------------
      1          6           0       -1.824893   -0.515148    0.021596
      2          1           0       -2.565765    0.123545   -0.467197
      3          1           0       -2.106538   -0.640106    1.073359
      4          1           0       -1.819821   -1.508709   -0.443302
      5          6           0       -0.479071    0.167528   -0.021848
      6          8           0       -0.343926    1.383399   -0.028511
      7          7           0        0.596339   -0.706148    0.055561
      8          1           0        0.481421   -1.543873   -0.518143
      9          6           0        1.932929   -0.103046    0.018333
     10          1           0        2.666941   -0.887013    0.231790
     11          1           0        2.165513    0.375801   -0.942770
     12          1           0        1.981495    0.660198    0.796942
 ---------------------------------------------------------------------
 Rotational constants (GHZ):      9.9098772      3.9316840      2.9290453
 Standard basis: 6-31G(d) (6D, 7F)
 There are    89 symmetry adapted basis functions of A   symmetry.
 Integral buffers will be    262144 words long.
 Raffenetti 1 integral format.
 Two-electron integral symmetry is turned on.
    89 basis functions,   168 primitive gaussians,    89 cartesian basis functions
    20 alpha electrons       20 beta electrons
       nuclear repulsion energy       179.9849661357 Hartrees.
 NAtoms=   12 NActive=   12 NUniq=   12 SFac= 1.00D+00 NAtFMM=   60 NAOKFM=F Big=F
 One-electron integrals computed using PRISM.
 NBasis=    89 RedAO= T  NBF=    89
 NBsUse=    89 1.00D-06 NBFU=    89
 Initial guess read from the read-write file.
 B after Tr=     0.000000    0.000000    0.000000
         Rot=    1.000000    0.000000    0.000000    0.000000 Ang=   0.00 deg.
 Initial guess orbital symmetries:
       Occupied  (A) (A) (A) (A) (A) (A) (A) (A) (A) (A) (A) (A)
                 (A) (A) (A) (A) (A) (A) (A) (A)
       Virtual   (A) (A) (A) (A) (A) (A) (A) (A) (A) (A) (A) (A)
                 (A) (A) (A) (A) (A) (A) (A) (A) (A) (A) (A) (A)
                 (A) (A) (A) (A) (A) (A) (A) (A) (A) (A) (A) (A)
                 (A) (A) (A) (A) (A) (A) (A) (A) (A) (A) (A) (A)
                 (A) (A) (A) (A) (A) (A) (A) (A) (A) (A) (A) (A)
                 (A) (A) (A) (A) (A) (A) (A) (A) (A)
 Harris functional with IExCor=  205 diagonalized for initial guess.
 ExpMin= 1.61D-01 ExpMax= 5.48D+03 ExpMxC= 8.25D+02 IAcc=1 IRadAn=         1 AccDes= 0.00D+00
 HarFok:  IExCor=  205 AccDes= 0.00D+00 IRadAn=         1 IDoV= 1
 ScaDFX=  1.000000  1.000000  1.000000  1.000000
 FoFCou: FMM=F IPFlag=           0 FMFlag=      100000 FMFlg1=           0
         NFxFlg=           0 DoJE=T BraDBF=F KetDBF=T FulRan=T
         Omega=  0.000000  0.000000  1.000000  0.000000  0.000000 ICntrl=     500 IOpCl=  0
         NMat0=    1 NMatS0=    1 NMatT0=    0 NMatD0=    1 NMtDS0=    0 NMtDT0=    0
         I1Cent=           4 NGrid=           0.
 Petite list used in FoFCou.
 Requested convergence on RMS density matrix=1.00D-08 within 128 cycles.
 Requested convergence on MAX density matrix=1.00D-06.
 Requested convergence on             energy=1.00D-06.
 No special actions if energy rises.
 Keep R1 ints in memory in canonical form, NReq=8885025.
 SCF Done:  E(RHF) =  -246.999695194     A.U. after   14 cycles
             Convg  =    0.2149D-08             -V/T =  2.0027
 ExpMin= 1.61D-01 ExpMax= 5.48D+03 ExpMxC= 8.25D+02 IAcc=3 IRadAn=         5 AccDes= 0.00D+00
 HarFok:  IExCor=  205 AccDes= 0.00D+00 IRadAn=         5 IDoV=-2
 ScaDFX=  1.000000  1.000000  1.000000  1.000000
 Range of M.O.s used for correlation:     6    89
 NBasis=    89 NAE=    20 NBE=    20 NFC=     5 NFV=     0
 NROrb=     84 NOA=    15 NOB=    15 NVA=    69 NVB=    69
 Fully direct method using O(ONN) memory.
 JobTyp=1 Pass  1:  I=   6 to  10 NPSUse=  4 ParTrn=T ParDer=T DoDerP=T.
 JobTyp=1 Pass  2:  I=  11 to  15 NPSUse=  4 ParTrn=T ParDer=T DoDerP=T.
 JobTyp=1 Pass  3:  I=  16 to  20 NPSUse=  4 ParTrn=T ParDer=T DoDerP=T.
 Spin components of T(2) and E(2):
     alpha-alpha T2 =       0.2930540110D-01 E2=     -0.9282566003D-01
     alpha-beta  T2 =       0.1700609283D+00 E2=     -0.5411649438D+00
     beta-beta   T2 =       0.2930540110D-01 E2=     -0.9282566003D-01
 ANorm=    0.1108454659D+01
 E2 =    -0.7268162639D+00 EUMP2 =    -0.24772651145837D+03
          IDoAtm=111111111111
          Differentiating once with respect to electric field.
                with respect to dipole field.
          Differentiating once with respect to nuclear coordinates.
          Keep R1 ints in memory in canonical form, NReq=8842680.
          There are     1 degrees of freedom in the 1st order CPHF.  IDoFFX=0.
 LinEq1:  Iter=  0 NonCon=     1 RMS=6.50D-03 Max=1.09D-01
 AX will form     1 AO Fock derivatives at one time.
 LinEq1:  Iter=  1 NonCon=     1 RMS=2.32D-03 Max=3.12D-02
 LinEq1:  Iter=  2 NonCon=     1 RMS=7.59D-04 Max=9.38D-03
 LinEq1:  Iter=  3 NonCon=     1 RMS=3.36D-04 Max=5.35D-03
 LinEq1:  Iter=  4 NonCon=     1 RMS=6.51D-05 Max=5.16D-04
 LinEq1:  Iter=  5 NonCon=     1 RMS=2.62D-05 Max=2.67D-04
 LinEq1:  Iter=  6 NonCon=     1 RMS=8.81D-06 Max=1.65D-04
 LinEq1:  Iter=  7 NonCon=     1 RMS=2.36D-06 Max=3.94D-05
 LinEq1:  Iter=  8 NonCon=     1 RMS=5.42D-07 Max=5.62D-06
 LinEq1:  Iter=  9 NonCon=     1 RMS=1.49D-07 Max=1.24D-06
 LinEq1:  Iter= 10 NonCon=     1 RMS=4.59D-08 Max=3.13D-07
 LinEq1:  Iter= 11 NonCon=     1 RMS=1.23D-08 Max=1.34D-07
 LinEq1:  Iter= 12 NonCon=     1 RMS=2.58D-09 Max=1.55D-08
 LinEq1:  Iter= 13 NonCon=     1 RMS=5.73D-10 Max=4.06D-09
 LinEq1:  Iter= 14 NonCon=     1 RMS=1.53D-10 Max=1.11D-09
 LinEq1:  Iter= 15 NonCon=     0 RMS=4.32D-11 Max=3.33D-10
 Linear equations converged to 1.000D-10 1.000D-09 after    15 iterations.
 End of Minotr Frequency-dependent properties file   721 does not exist.
 End of Minotr Frequency-dependent properties file   722 does not exist.
 Calling FoFJK, ICntrl=      2127 FMM=F ISym2X=0 I1Cent= 0 IOpClX= 0 NMat=1 NMatS=1 NMatT=0.
 ***** Axes restored to original set *****
 -------------------------------------------------------------------
 Center     Atomic                   Forces (Hartrees/Bohr)
 Number     Number              X              Y              Z
 -------------------------------------------------------------------
      1        6           0.002092728   -0.003200262    0.002892095
      2        1          -0.000062383   -0.000478780   -0.002169072
      3        1          -0.000985115   -0.000694500    0.001283187
      4        1           0.000771152    0.002382606    0.001051110
      5        6          -0.005825812   -0.009473998   -0.006359262
      6        8           0.004798612    0.008899717    0.002891380
      7        7          -0.008085498    0.003783364    0.004434758
      8        1           0.006394312    0.003949531   -0.004098067
      9        6           0.000153314   -0.003623041   -0.001189389
     10        1           0.000278682    0.000914183    0.002528191
     11        1           0.001661591   -0.001308001   -0.001067726
     12        1          -0.001191582   -0.001150818   -0.000197205
 -------------------------------------------------------------------
 Cartesian Forces:  Max     0.009473998 RMS     0.003786044

 GradGradGradGradGradGradGradGradGradGradGradGradGradGradGradGradGradGrad
 Berny optimization.
 Using GEDIIS/GDIIS optimizer.
 Internal  Forces:  Max     0.009586062 RMS     0.002484925
 Search for a local minimum.
 Step number   3 out of a maximum of   55 on scan point     1 out of    13
 All quantities printed in internal units (Hartrees-Bohrs-Radians)
 Mixed Optimization -- RFO/linear search
 Update second derivatives using D2CorX and points    2    3
 DE= -3.02D-03 DEPred=-3.04D-03 R= 9.92D-01
 SS=  1.41D+00  RLast= 3.97D-01 DXNew= 8.4853D-01 1.1920D+00
 Trust test= 9.92D-01 RLast= 3.97D-01 DXMaxT set to 8.49D-01
 ITU=  1  1  0
 Use linear search instead of GDIIS.
     Eigenvalues ---    0.00237   0.00517   0.00770   0.01831   0.06907
     Eigenvalues ---    0.07169   0.07426   0.07792   0.12607   0.15827
     Eigenvalues ---    0.16000   0.16000   0.16000   0.16302   0.16622
     Eigenvalues ---    0.22532   0.24967   0.25633   0.29029   0.31496
     Eigenvalues ---    0.36075   0.37222   0.37230   0.37230   0.37230
     Eigenvalues ---    0.37270   0.38787   0.49047   0.834071000.00000
     Eigenvalues --- 1000.000001000.000001000.000001000.000001000.00000
     Eigenvalues --- 1000.000001000.000001000.000001000.000001000.00000
     Eigenvalues --- 1000.000001000.000001000.000001000.000001000.00000
 RFO step:  Lambda=-5.24513267D-03 EMin= 2.37078172D-03
 Quartic linear search produced a step of  0.46808.
 Iteration  1 RMS(Cart)=  0.08691997 RMS(Int)=  0.03350888
 Iteration  2 RMS(Cart)=  0.03932215 RMS(Int)=  0.00534338
 Iteration  3 RMS(Cart)=  0.00124900 RMS(Int)=  0.00519133
 Iteration  4 RMS(Cart)=  0.00000365 RMS(Int)=  0.00519133
 Iteration  5 RMS(Cart)=  0.00000004 RMS(Int)=  0.00519133
 Iteration  1 RMS(Cart)=  0.00048099 RMS(Int)=  0.00025355
 Iteration  2 RMS(Cart)=  0.00025836 RMS(Int)=  0.00028332
 Iteration  3 RMS(Cart)=  0.00013877 RMS(Int)=  0.00031945
 Iteration  4 RMS(Cart)=  0.00007453 RMS(Int)=  0.00034286
 Iteration  5 RMS(Cart)=  0.00004003 RMS(Int)=  0.00035635
 Iteration  6 RMS(Cart)=  0.00002150 RMS(Int)=  0.00036382
 Iteration  7 RMS(Cart)=  0.00001155 RMS(Int)=  0.00036789
 Iteration  8 RMS(Cart)=  0.00000620 RMS(Int)=  0.00037010
 Iteration  9 RMS(Cart)=  0.00000333 RMS(Int)=  0.00037128
 Iteration 10 RMS(Cart)=  0.00000179 RMS(Int)=  0.00037192
 Iteration 11 RMS(Cart)=  0.00000096 RMS(Int)=  0.00037227
 Variable       Old X    -DE/DX   Delta X   Delta X   Delta X     New X
                                 (Linear)    (Quad)   (Total)
    R1        2.06641  -0.00214   0.00415  -0.00845  -0.00430   2.06211
    R2        2.07108  -0.00142   0.00365  -0.00721  -0.00356   2.06752
    R3        2.07295  -0.00263   0.00321  -0.01212  -0.00891   2.06404
    R4        2.85290   0.00327   0.00190   0.02456   0.02646   2.87937
    R5        2.31185   0.00959  -0.00580   0.01752   0.01172   2.32357
    R6        2.62244  -0.00004  -0.02391  -0.00741  -0.03132   2.59112
    R7        1.93097  -0.00630   0.00214  -0.01996  -0.01782   1.91315
    R8        2.77191  -0.00480  -0.00743  -0.02511  -0.03254   2.73937
    R9        2.06918  -0.00257   0.00311  -0.01150  -0.00839   2.06079
   R10        2.07621  -0.00225   0.00438  -0.00987  -0.00549   2.07073
   R11        2.06243  -0.00166   0.00356  -0.00694  -0.00338   2.05905
    A1        1.89806  -0.00083  -0.00682  -0.01088  -0.01772   1.88034
    A2        1.92061  -0.00028  -0.00309  -0.01118  -0.01474   1.90586
    A3        1.90392   0.00066   0.01050   0.01679   0.02701   1.93093
    A4        1.88035  -0.00002  -0.00733  -0.00223  -0.00952   1.87083
    A5        1.88416   0.00163  -0.00692   0.01044   0.00353   1.88769
    A6        1.97496  -0.00115   0.01297  -0.00330   0.00944   1.98440
    A7        2.15083  -0.00189   0.00977  -0.01318  -0.00932   2.14151
    A8        1.98726   0.00358  -0.01071   0.01259  -0.00411   1.98315
    A9        2.14171  -0.00176   0.00423  -0.01719  -0.01925   2.12246
   A10        1.97977   0.00168   0.03080   0.06748   0.07985   2.05962
   A11        2.03293   0.00135   0.02307   0.03066   0.03554   2.06847
   A12        2.01010  -0.00167   0.02992   0.03809   0.04785   2.05795
   A13        1.88757   0.00128   0.00477   0.01898   0.02378   1.91135
   A14        1.97610  -0.00143  -0.00095  -0.02213  -0.02310   1.95300
   A15        1.88597   0.00034  -0.00460   0.00142  -0.00331   1.88266
   A16        1.91843  -0.00026   0.00147  -0.00304  -0.00147   1.91696
   A17        1.90901  -0.00031   0.00136   0.00210   0.00339   1.91240
   A18        1.88584   0.00038  -0.00205   0.00316   0.00093   1.88677
    D1        0.51661   0.00075  -0.03027   0.10752   0.07648   0.59309
    D2       -2.71115  -0.00017   0.00024  -0.11964  -0.11895  -2.83011
    D3       -1.54313   0.00046  -0.02413   0.10536   0.08060  -1.46253
    D4        1.51229  -0.00047   0.00638  -0.12180  -0.11483   1.39746
    D5        2.66074   0.00009  -0.01841   0.10316   0.08432   2.74506
    D6       -0.56702  -0.00084   0.01210  -0.12400  -0.11110  -0.67813
    D7        0.74697  -0.00300  -0.09511  -0.17889  -0.27875   0.46822
    D8       -3.14159  -0.00211   0.00000   0.00000   0.00000  -3.14159
    D9       -2.48029  -0.00393  -0.06424  -0.40450  -0.47124  -2.95153
   D10       -0.08566  -0.00303   0.03087  -0.22560  -0.19250  -0.27816
   D11        3.00145  -0.00078  -0.04144  -0.07557  -0.11720   2.88425
   D12       -1.15143  -0.00113  -0.03682  -0.08044  -0.11764  -1.26908
   D13        0.93666  -0.00130  -0.04317  -0.08922  -0.13262   0.80404
   D14       -0.89995   0.00158   0.05573   0.11877   0.17484  -0.72512
   D15        1.23035   0.00123   0.06034   0.11390   0.17440   1.40474
   D16       -2.96474   0.00105   0.05399   0.10512   0.15942  -2.80532
         Item               Value     Threshold  Converged?
 Maximum Force            0.009586     0.000450     NO 
 RMS     Force            0.002470     0.000300     NO 
 Maximum Displacement     0.287783     0.001800     NO 
 RMS     Displacement     0.119479     0.001200     NO 
 Predicted change in Energy=-3.697288D-03
 GradGradGradGradGradGradGradGradGradGradGradGradGradGradGradGradGradGrad

                          Input orientation:                          
 ---------------------------------------------------------------------
 Center     Atomic      Atomic             Coordinates (Angstroms)
 Number     Number       Type             X           Y           Z
 ---------------------------------------------------------------------
      1          6           0       -0.105533    0.011239   -0.019388
      2          1           0        0.150284   -0.010397    1.041202
      3          1           0        0.823773   -0.086669   -0.588441
      4          1           0       -0.723053   -0.857596   -0.257704
      5          6           0       -0.750801    1.341128   -0.389079
      6          8           0       -0.432748    2.403919    0.141190
      7          7           0       -1.439379    1.307139   -1.574317
      8          1           0       -1.819477    0.419313   -1.878022
      9          6           0       -2.095867    2.517258   -2.028199
     10          1           0       -2.367205    2.412189   -3.079186
     11          1           0       -2.988413    2.745196   -1.434782
     12          1           0       -1.393179    3.342040   -1.913327
 ---------------------------------------------------------------------
                    Distance matrix (angstroms):
                    1          2          3          4          5
     1  C    0.000000
     2  H    1.091220   0.000000
     3  H    1.094083   1.764976   0.000000
     4  H    1.092244   1.779780   1.759655   0.000000
     5  C    1.523695   2.164319   2.134862   2.202820   0.000000
     6  O    2.420283   2.641754   2.883441   3.298616   1.229580
     7  N    2.424109   3.332246   2.834874   2.632997   1.371161
     8  H    2.560986   3.547742   2.984260   2.336252   2.051526
     9  C    3.778476   4.566777   4.168649   4.050791   2.424706
    10  H    4.499120   5.402246   4.757146   4.621200   3.316113
    11  H    4.217684   4.855430   4.823745   4.415595   2.841093
    12  H    4.042187   4.727616   4.292580   4.563671   2.596080
                    6          7          8          9         10
     6  O    0.000000
     7  N    2.271386   0.000000
     8  H    3.152601   1.012396   0.000000
     9  C    2.735884   1.449611   2.121395   0.000000
    10  H    3.756729   2.084856   2.390471   1.090521   0.000000
    11  H    3.021851   2.118250   2.640569   1.095782   1.789093
    12  H    2.454290   2.063464   2.953863   1.089602   1.781172
                   11         12
    11  H    0.000000
    12  H    1.769180   0.000000
 Stoichiometry    C3H7NO
 Framework group  C1[X(C3H7NO)]
 Deg. of freedom    30
 Full point group                 C1      NOp   1
 Largest Abelian subgroup         C1      NOp   1
 Largest concise Abelian subgroup C1      NOp   1
                         Standard orientation:                         
 ---------------------------------------------------------------------
 Center     Atomic      Atomic             Coordinates (Angstroms)
 Number     Number       Type             X           Y           Z
 ---------------------------------------------------------------------
      1          6           0       -1.822867   -0.525202    0.005731
      2          1           0       -2.608931    0.099388   -0.421764
      3          1           0       -2.056867   -0.677974    1.063522
      4          1           0       -1.842693   -1.506148   -0.474217
      5          6           0       -0.472185    0.174058   -0.085590
      6          8           0       -0.347285    1.393225    0.013903
      7          7           0        0.596061   -0.672387    0.064296
      8          1           0        0.472322   -1.644016   -0.191775
      9          6           0        1.933544   -0.117585   -0.004287
     10          1           0        2.648926   -0.842226    0.386047
     11          1           0        2.208142    0.161758   -1.027665
     12          1           0        1.953999    0.782505    0.609431
 ---------------------------------------------------------------------
 Rotational constants (GHZ):      9.8887006      3.9381294      2.9246683
 Standard basis: 6-31G(d) (6D, 7F)
 There are    89 symmetry adapted basis functions of A   symmetry.
 Integral buffers will be    262144 words long.
 Raffenetti 1 integral format.
 Two-electron integral symmetry is turned on.
    89 basis functions,   168 primitive gaussians,    89 cartesian basis functions
    20 alpha electrons       20 beta electrons
       nuclear repulsion energy       180.2101678118 Hartrees.
 NAtoms=   12 NActive=   12 NUniq=   12 SFac= 1.00D+00 NAtFMM=   60 NAOKFM=F Big=F
 One-electron integrals computed using PRISM.
 NBasis=    89 RedAO= T  NBF=    89
 NBsUse=    89 1.00D-06 NBFU=    89
 Initial guess read from the read-write file.
 B after Tr=     0.000000    0.000000    0.000000
         Rot=    1.000000    0.000000    0.000000    0.000000 Ang=   0.00 deg.
 Initial guess orbital symmetries:
       Occupied  (A) (A) (A) (A) (A) (A) (A) (A) (A) (A) (A) (A)
                 (A) (A) (A) (A) (A) (A) (A) (A)
       Virtual   (A) (A) (A) (A) (A) (A) (A) (A) (A) (A) (A) (A)
                 (A) (A) (A) (A) (A) (A) (A) (A) (A) (A) (A) (A)
                 (A) (A) (A) (A) (A) (A) (A) (A) (A) (A) (A) (A)
                 (A) (A) (A) (A) (A) (A) (A) (A) (A) (A) (A) (A)
                 (A) (A) (A) (A) (A) (A) (A) (A) (A) (A) (A) (A)
                 (A) (A) (A) (A) (A) (A) (A) (A) (A)
 Harris functional with IExCor=  205 diagonalized for initial guess.
 ExpMin= 1.61D-01 ExpMax= 5.48D+03 ExpMxC= 8.25D+02 IAcc=1 IRadAn=         1 AccDes= 0.00D+00
 HarFok:  IExCor=  205 AccDes= 0.00D+00 IRadAn=         1 IDoV= 1
 ScaDFX=  1.000000  1.000000  1.000000  1.000000
 FoFCou: FMM=F IPFlag=           0 FMFlag=      100000 FMFlg1=           0
         NFxFlg=           0 DoJE=T BraDBF=F KetDBF=T FulRan=T
         Omega=  0.000000  0.000000  1.000000  0.000000  0.000000 ICntrl=     500 IOpCl=  0
         NMat0=    1 NMatS0=    1 NMatT0=    0 NMatD0=    1 NMtDS0=    0 NMtDT0=    0
         I1Cent=           4 NGrid=           0.
 Petite list used in FoFCou.
 Requested convergence on RMS density matrix=1.00D-08 within 128 cycles.
 Requested convergence on MAX density matrix=1.00D-06.
 Requested convergence on             energy=1.00D-06.
 No special actions if energy rises.
 Keep R1 ints in memory in canonical form, NReq=8885025.
 SCF Done:  E(RHF) =  -246.999683721     A.U. after   15 cycles
             Convg  =    0.2870D-08             -V/T =  2.0026
 ExpMin= 1.61D-01 ExpMax= 5.48D+03 ExpMxC= 8.25D+02 IAcc=3 IRadAn=         5 AccDes= 0.00D+00
 HarFok:  IExCor=  205 AccDes= 0.00D+00 IRadAn=         5 IDoV=-2
 ScaDFX=  1.000000  1.000000  1.000000  1.000000
 Range of M.O.s used for correlation:     6    89
 NBasis=    89 NAE=    20 NBE=    20 NFC=     5 NFV=     0
 NROrb=     84 NOA=    15 NOB=    15 NVA=    69 NVB=    69
 Fully direct method using O(ONN) memory.
 JobTyp=1 Pass  1:  I=   6 to  10 NPSUse=  4 ParTrn=T ParDer=T DoDerP=T.
 JobTyp=1 Pass  2:  I=  11 to  15 NPSUse=  4 ParTrn=T ParDer=T DoDerP=T.
 JobTyp=1 Pass  3:  I=  16 to  20 NPSUse=  4 ParTrn=T ParDer=T DoDerP=T.
 Spin components of T(2) and E(2):
     alpha-alpha T2 =       0.2932764594D-01 E2=     -0.9302108188D-01
     alpha-beta  T2 =       0.1697680378D+00 E2=     -0.5411063097D+00
     beta-beta   T2 =       0.2932764594D-01 E2=     -0.9302108188D-01
 ANorm=    0.1108342605D+01
 E2 =    -0.7271484734D+00 EUMP2 =    -0.24772683219469D+03
          IDoAtm=111111111111
          Differentiating once with respect to electric field.
                with respect to dipole field.
          Differentiating once with respect to nuclear coordinates.
          Keep R1 ints in memory in canonical form, NReq=8842680.
          There are     1 degrees of freedom in the 1st order CPHF.  IDoFFX=0.
 LinEq1:  Iter=  0 NonCon=     1 RMS=6.60D-03 Max=1.17D-01
 AX will form     1 AO Fock derivatives at one time.
 LinEq1:  Iter=  1 NonCon=     1 RMS=2.34D-03 Max=3.22D-02
 LinEq1:  Iter=  2 NonCon=     1 RMS=7.66D-04 Max=9.95D-03
 LinEq1:  Iter=  3 NonCon=     1 RMS=3.39D-04 Max=5.30D-03
 LinEq1:  Iter=  4 NonCon=     1 RMS=6.50D-05 Max=5.42D-04
 LinEq1:  Iter=  5 NonCon=     1 RMS=2.57D-05 Max=2.45D-04
 LinEq1:  Iter=  6 NonCon=     1 RMS=7.02D-06 Max=5.19D-05
 LinEq1:  Iter=  7 NonCon=     1 RMS=1.70D-06 Max=1.91D-05
 LinEq1:  Iter=  8 NonCon=     1 RMS=4.04D-07 Max=5.63D-06
 LinEq1:  Iter=  9 NonCon=     1 RMS=1.08D-07 Max=1.58D-06
 LinEq1:  Iter= 10 NonCon=     1 RMS=3.37D-08 Max=4.36D-07
 LinEq1:  Iter= 11 NonCon=     1 RMS=9.91D-09 Max=1.49D-07
 LinEq1:  Iter= 12 NonCon=     1 RMS=2.36D-09 Max=1.98D-08
 LinEq1:  Iter= 13 NonCon=     1 RMS=4.75D-10 Max=4.32D-09
 LinEq1:  Iter= 14 NonCon=     1 RMS=1.22D-10 Max=9.37D-10
 LinEq1:  Iter= 15 NonCon=     0 RMS=3.56D-11 Max=3.37D-10
 Linear equations converged to 1.000D-10 1.000D-09 after    15 iterations.
 End of Minotr Frequency-dependent properties file   721 does not exist.
 End of Minotr Frequency-dependent properties file   722 does not exist.
 Calling FoFJK, ICntrl=      2127 FMM=F ISym2X=0 I1Cent= 0 IOpClX= 0 NMat=1 NMatS=1 NMatT=0.
 ***** Axes restored to original set *****
 -------------------------------------------------------------------
 Center     Atomic                   Forces (Hartrees/Bohr)
 Number     Number              X              Y              Z
 -------------------------------------------------------------------
      1        6          -0.001830653   -0.000595711    0.004281381
      2        1          -0.001738948    0.001906203   -0.000101830
      3        1          -0.000168425    0.001759339   -0.000224246
      4        1          -0.002512163    0.000207821    0.000110977
      5        6           0.023128389   -0.007044211   -0.015492640
      6        8          -0.006507983    0.001727478    0.009717459
      7        7          -0.007938889   -0.001400926    0.003729435
      8        1          -0.000112970    0.000455188    0.000690238
      9        6          -0.000910125    0.002747238   -0.000628538
     10        1          -0.000456002   -0.000548094   -0.000189987
     11        1          -0.000573125    0.000588511   -0.001308894
     12        1          -0.000379105    0.000197165   -0.000583355
 -------------------------------------------------------------------
 Cartesian Forces:  Max     0.023128389 RMS     0.005513611

 GradGradGradGradGradGradGradGradGradGradGradGradGradGradGradGradGradGrad
 Berny optimization.
 Using GEDIIS/GDIIS optimizer.
 Internal  Forces:  Max     0.005366079 RMS     0.002792953
 Search for a local minimum.
 Step number   4 out of a maximum of   55 on scan point     1 out of    13
 All quantities printed in internal units (Hartrees-Bohrs-Radians)
 Mixed Optimization -- RFO/linear search
 Update second derivatives using D2CorX and points    3    4
 DE= -3.21D-04 DEPred=-3.70D-03 R= 8.67D-02
 Trust test= 8.67D-02 RLast= 7.38D-01 DXMaxT set to 4.24D-01
 ITU= -1  1  1  0
 Use linear search instead of GDIIS.
     Eigenvalues ---    0.00238   0.00735   0.00792   0.03776   0.06737
     Eigenvalues ---    0.07283   0.07297   0.07727   0.14413   0.15917
     Eigenvalues ---    0.16000   0.16000   0.16052   0.16356   0.16688
     Eigenvalues ---    0.22415   0.23946   0.25539   0.29279   0.31293
     Eigenvalues ---    0.36133   0.37225   0.37230   0.37230   0.37234
     Eigenvalues ---    0.37267   0.38628   0.48283   0.813471000.00000
     Eigenvalues --- 1000.000001000.000001000.000001000.000001000.00000
     Eigenvalues --- 1000.000001000.000001000.000001000.000001000.00000
     Eigenvalues --- 1000.000001000.000001000.000001000.000001000.00000
 RFO step:  Lambda=-2.23560298D-03 EMin= 2.37719310D-03
 Quartic linear search produced a step of -0.46068.
 Iteration  1 RMS(Cart)=  0.04058702 RMS(Int)=  0.00234155
 Iteration  2 RMS(Cart)=  0.00278316 RMS(Int)=  0.00153022
 Iteration  3 RMS(Cart)=  0.00000422 RMS(Int)=  0.00153022
 Iteration  4 RMS(Cart)=  0.00000000 RMS(Int)=  0.00153022
[...]
           D4         101.49362 152.24539 157.76973 162.07522 166.39997
           D5         162.28680-150.94196-148.27196-146.84740-144.73069
           D6         -19.74110  30.75682  35.96725  39.94542  44.01839
           D7           4.58333  10.25668   7.37065   0.60947  -7.67931
           D8         179.99997 165.00005 150.00008 135.00010 120.00011
           D9        -177.47082-168.04947-168.39728-172.61280-178.98338
           D10         -2.05418 -13.30610 -25.76784 -38.22217 -51.30397
           D11        125.51996 162.51816 164.92588 166.91301 171.27376
           D12       -112.78009 -76.04711 -73.59526 -71.66652 -67.40969
           D13          6.36846  43.45556  46.05414  48.26996  52.93134
           D14        -59.06812 -42.75547 -52.45090 -58.57428 -60.70537
           D15         62.63182  78.67926  69.02797  62.84619  60.61118
           D16       -178.21963-161.81806-171.32263-177.21733-179.04779
                           6         7         8         9        10
     Eigenvalues --  -247.70976-247.70373-247.69883-247.69617-247.72341
           R1           1.09511   1.09506   1.09426   1.09408   1.09464
           R2           1.08988   1.08988   1.08997   1.09008   1.08938
           R3           1.09470   1.09492   1.09496   1.09444   1.09286
           R4           1.51520   1.51556   1.51625   1.51705   1.51374
           R5           1.22479   1.22216   1.22013   1.21902   1.23031
           R6           1.41286   1.42823   1.44175   1.44811   1.38858
           R7           1.01911   1.02124   1.02277   1.02235   1.01843
           R8           1.47036   1.47386   1.47510   1.47213   1.46179
           R9           1.09135   1.09140   1.09155   1.09176   1.09128
           R10          1.09851   1.09940   1.09919   1.09928   1.09124
           R11          1.09014   1.09102   1.09192   1.09240   1.09707
           A1         109.28506 109.41702 109.29053 108.90488 108.75359
           A2         107.78285 107.55777 107.40978 107.39746 108.06185
           A3         107.73756 108.32814 109.25261 109.97376 111.54247
           A4         109.67441 109.64292 109.67177 110.01513 110.06481
           A5         109.73704 109.76659 109.62452 109.35997 107.90336
           A6         112.54311 112.06560 111.54175 111.14582 110.50147
           A7         122.01492 122.18040 122.09230 121.86902 122.61247
           A8         116.39219 116.69559 117.25429 117.75112 115.79196
           A9         120.88507 120.52476 120.33455 120.34579 121.22864
           A10        109.70437 108.42653 107.62120 107.78704 108.60114
           A11        113.99856 112.01337 111.60332 112.56010 121.17178
           A12        108.62813 107.16702 106.65341 108.03100 113.09111
           A13        108.88091 108.56736 108.27346 108.12575 108.39261
           A14        112.90581 113.66348 114.52567 115.15306 109.95791
           A15        108.38814 108.44924 108.44857 108.47221 113.13509
           A16        109.02342 108.80413 108.60470 108.43358 107.69123
           A17        108.62895 108.40698 108.09460 107.81048 108.71081
           A18        108.92971 108.83094 108.72069 108.62099 108.80416
           D1         100.42009 106.20715 109.11115 107.33558 112.82858
           D2         -70.01345 -64.95316 -64.41972 -70.54718 -74.05415
           D3         -18.47160 -13.21087 -10.62752 -12.20908  -6.56225
           D4         171.09487 175.62883 175.84161 169.90817 166.55502
           D5        -140.89746-135.29115-132.29472-133.86917-126.94116
           D6          48.66900  53.54855  54.17441  48.24808  46.17610
           D7         -17.06208 -28.05193 -41.69141 -59.03124 178.41197
           D8         105.00011  90.00009  75.00009  60.00005  44.99991
           D9         172.38863 160.63228 144.65807 123.05229  -8.36749
           D10        -65.54917 -81.31570 -98.65043-117.91641-141.77955
           D11        176.27188 179.58443 178.86947 176.13889-178.66552
           D12        -62.49714 -59.18767 -59.80084 -62.44288 -61.18440
           D13         58.27265  61.98993  61.80732  59.48013  60.69102
           D14        -61.07549 -61.61657 -63.85295 -64.97228  49.79048
           D15         60.15549  59.61132  57.47674  56.44596 167.27160
           D16       -179.07472-179.21107 179.08490 178.36896 -70.85299
                          11        12        13
     Eigenvalues --  -247.72540-247.72596-247.72579
           R1           1.09439   1.09413   1.09418
           R2           1.08925   1.08919   1.08915
           R3           1.09354   1.09408   1.09418
           R4           1.51394   1.51443   1.51440
           R5           1.23135   1.23223   1.23267
           R6           1.37982   1.37278   1.36918
           R7           1.01603   1.01390   1.01251
           R8           1.45612   1.45169   1.45038
           R9           1.09128   1.09122   1.09069
           R10          1.09111   1.09153   1.09468
           R11          1.09722   1.09705   1.09470
           A1         109.08237 109.36807 109.38683
           A2         107.95456 107.87876 107.77021
           A3         111.45728 111.45499 111.25114
           A4         109.69089 109.34201 109.38292
           A5         107.78337 107.69520 107.78311
           A6         110.85421 111.07969 111.24712
           A7         122.62957 122.65028 122.81639
           A8         116.03843 116.08440 115.79801
           A9         121.18533 121.23702 121.38559
           A10        110.75613 112.76083 113.88068
           A11        123.73645 125.95556 126.86311
           A12        115.71990 117.97784 119.25620
           A13        108.35028 108.33737 108.08439
           A14        110.13467 110.46382 111.99928
           A15        113.19714 113.07978 112.00761
           A16        107.68982 107.72144 107.98717
           A17        108.56967 108.41506 107.98929
           A18        108.74367 108.66718 108.61773
           D1         116.85051 121.19212 119.96122
           D2         -67.50801 -60.72294 -60.03947
           D3          -2.81720   1.23112   0.04250
           D4         172.82428 179.31606-179.95818
           D5        -122.87323-118.47614-119.86904
           D6          52.76825  59.60880  60.13028
           D7         174.21070 173.87893 179.99157
           D8          29.99990  14.99999   0.00001
           D9         -10.07982  -8.00689  -0.00911
           D10       -154.29062-166.88583 179.99934
           D11       -175.50226-170.78937-179.92442
           D12        -57.94779 -53.01728 -61.08925
           D13         64.02200  69.01287  61.23284
           D14         41.86961  31.31236   0.08443
           D15        159.42408 149.08445 118.91960
           D16        -78.60613 -88.88540-118.75831
                          Input orientation:                          
 ---------------------------------------------------------------------
 Center     Atomic      Atomic             Coordinates (Angstroms)
 Number     Number       Type             X           Y           Z
 ---------------------------------------------------------------------
      1          6           0       -0.442379    0.627012    0.187671
      2          1           0       -0.784267    1.483924    0.775922
      3          1           0        0.418955    0.173594    0.676296
      4          1           0       -1.260625   -0.098317    0.147552
      5          6           0       -0.015768    1.050522   -1.202306
      6          8           0        1.126193    0.876666   -1.632630
      7          7           0       -0.982839    1.646330   -1.966785
      8          1           0       -0.666546    1.917654   -2.889559
      9          6           0       -2.356660    1.908606   -1.582811
     10          1           0       -2.856662    2.391945   -2.423039
     11          1           0       -2.900453    0.987430   -1.350306
     12          1           0       -2.420546    2.579393   -0.720059
 ---------------------------------------------------------------------
                    Distance matrix (angstroms):
                    1          2          3          4          5
     1  C    0.000000
     2  H    1.094178   0.000000
     3  H    1.089146   1.781750   0.000000
     4  H    1.094183   1.767839   1.781711   0.000000
     5  C    1.514396   2.166060   2.118286   2.166014   0.000000
     6  O    2.415832   3.133647   2.515082   3.133136   1.232672
     7  N    2.443929   2.754677   3.334645   2.755246   1.369176
     8  H    3.344452   3.692930   4.115262   3.693388   2.005556
     9  C    2.905436   2.866425   3.977168   2.867610   2.522076
    10  H    3.969831   3.918249   5.025596   3.918759   3.370501
    11  H    2.921884   3.040657   3.973401   2.472137   2.889168
    12  H    2.923852   2.472937   3.974976   3.044388   2.890150
                    6          7          8          9         10
     6  O    0.000000
     7  N    2.269814   0.000000
     8  H    2.424343   1.012507   0.000000
     9  C    3.632856   1.450382   2.136389   0.000000
    10  H    4.334044   2.067684   2.288929   1.090689   0.000000
    11  H    4.038050   2.119301   2.867918   1.094684   1.767861
    12  H    4.038740   2.119418   2.867254   1.094704   1.767901
                   11         12
    11  H    0.000000
    12  H    1.778164   0.000000
 Stoichiometry    C3H7NO
 Framework group  C1[X(C3H7NO)]
 Deg. of freedom    30
 Full point group                 C1      NOp   1
 Largest Abelian subgroup         C1      NOp   1
 Largest concise Abelian subgroup C1      NOp   1
                         Standard orientation:                         
 ---------------------------------------------------------------------
 Center     Atomic      Atomic             Coordinates (Angstroms)
 Number     Number       Type             X           Y           Z
 ---------------------------------------------------------------------
      1          6           0       -0.710667   -1.357242   -0.000015
      2          1           0       -0.224971   -1.782386   -0.883519
      3          1           0       -1.765144   -1.629852   -0.000776
      4          1           0       -0.226353   -1.782248    0.884319
      5          6           0       -0.623808    0.154661   -0.000006
      6          8           0       -1.619739    0.881023    0.000009
      7          7           0        0.641053    0.678842    0.000000
      8          1           0        0.665273    1.691060   -0.000130
      9          6           0        1.889112   -0.060048   -0.000002
     10          1           0        2.708648    0.659646    0.001372
     11          1           0        1.991992   -0.691197    0.888480
     12          1           0        1.993274   -0.689330   -0.889683
 ---------------------------------------------------------------------
 Rotational constants (GHZ):      8.8036622      4.0967756      2.8973268

 **********************************************************************

            Population analysis using the SCF density.

 **********************************************************************

 Orbital symmetries:
       Occupied  (A) (A) (A) (A) (A) (A) (A) (A) (A) (A) (A) (A)
                 (A) (A) (A) (A) (A) (A) (A) (A)
       Virtual   (A) (A) (A) (A) (A) (A) (A) (A) (A) (A) (A) (A)
                 (A) (A) (A) (A) (A) (A) (A) (A) (A) (A) (A) (A)
                 (A) (A) (A) (A) (A) (A) (A) (A) (A) (A) (A) (A)
                 (A) (A) (A) (A) (A) (A) (A) (A) (A) (A) (A) (A)
                 (A) (A) (A) (A) (A) (A) (A) (A) (A) (A) (A) (A)
                 (A) (A) (A) (A) (A) (A) (A) (A) (A)
 The electronic state is 1-A.
 Alpha  occ. eigenvalues --  -20.51496 -15.58584 -11.34961 -11.27808 -11.23560
 Alpha  occ. eigenvalues --   -1.36199  -1.22379  -1.00497  -0.95429  -0.77935
 Alpha  occ. eigenvalues --   -0.67055  -0.66181  -0.63901  -0.58060  -0.57315
 Alpha  occ. eigenvalues --   -0.55877  -0.55329  -0.50690  -0.41138  -0.38090
 Alpha virt. eigenvalues --    0.20089   0.21328   0.23658   0.27016   0.29337
 Alpha virt. eigenvalues --    0.30926   0.32613   0.36457   0.39746   0.41922
 Alpha virt. eigenvalues --    0.49234   0.57952   0.68375   0.72631   0.73222
 Alpha virt. eigenvalues --    0.78550   0.82823   0.84891   0.86494   0.94794
 Alpha virt. eigenvalues --    0.98695   1.04082   1.06155   1.08283   1.10283
 Alpha virt. eigenvalues --    1.12687   1.14877   1.16284   1.17120   1.19510
 Alpha virt. eigenvalues --    1.22481   1.25236   1.30904   1.34334   1.37266
 Alpha virt. eigenvalues --    1.59412   1.62857   1.63198   1.67663   1.75937
 Alpha virt. eigenvalues --    1.82254   1.89239   2.05462   2.07002   2.11620
 Alpha virt. eigenvalues --    2.19990   2.22045   2.26587   2.30373   2.38895
 Alpha virt. eigenvalues --    2.39502   2.44222   2.45749   2.60132   2.60238
 Alpha virt. eigenvalues --    2.64370   2.79356   2.85601   2.87778   2.97258
 Alpha virt. eigenvalues --    2.97559   3.25226   3.35960   3.48255   4.31989
 Alpha virt. eigenvalues --    4.41447   4.60829   4.71554   4.90703
          Condensed to atoms (all electrons):
              1          2          3          4          5          6
     1  C    5.311138   0.372621   0.382103   0.372631   0.352714  -0.074555
     2  H    0.372621   0.509210  -0.017990  -0.026119  -0.027886   0.001238
     3  H    0.382103  -0.017990   0.457598  -0.017982  -0.032078   0.004451
     4  H    0.372631  -0.026119  -0.017982   0.509152  -0.027884   0.001233
     5  C    0.352714  -0.027886  -0.032078  -0.027884   4.117044   0.612918
     6  O   -0.074555   0.001238   0.004451   0.001233   0.612918   8.166562
     7  N   -0.118997   0.001973   0.004150   0.001973   0.291425  -0.096821
     8  H    0.005425  -0.000171  -0.000123  -0.000171  -0.013387   0.007314
     9  C   -0.006768  -0.001516   0.000075  -0.001520  -0.020908   0.002163
    10  H    0.000070   0.000044   0.000001   0.000044   0.001477  -0.000060
    11  H   -0.000608  -0.000334  -0.000003   0.001082  -0.001386   0.000025
    12  H   -0.000605   0.001079  -0.000003  -0.000328  -0.001380   0.000025
              7          8          9         10         11         12
     1  C   -0.118997   0.005425  -0.006768   0.000070  -0.000608  -0.000605
     2  H    0.001973  -0.000171  -0.001516   0.000044  -0.000334   0.001079
     3  H    0.004150  -0.000123   0.000075   0.000001  -0.000003  -0.000003
     4  H    0.001973  -0.000171  -0.001520   0.000044   0.001082  -0.000328
     5  C    0.291425  -0.013387  -0.020908   0.001477  -0.001386  -0.001380
     6  O   -0.096821   0.007314   0.002163  -0.000060   0.000025   0.000025
     7  N    7.314922   0.312033   0.201159  -0.031616  -0.048242  -0.048271
     8  H    0.312033   0.317402  -0.021876  -0.005078   0.001793   0.001789
     9  C    0.201159  -0.021876   4.920541   0.400811   0.400764   0.400754
    10  H   -0.031616  -0.005078   0.400811   0.497987  -0.025415  -0.025452
    11  H   -0.048242   0.001793   0.400764  -0.025415   0.537919  -0.040563
    12  H   -0.048271   0.001789   0.400754  -0.025452  -0.040563   0.538012
 Mulliken atomic charges:
              1
     1  C   -0.595168
     2  H    0.187852
     3  H    0.219799
     4  H    0.187889
     5  C    0.749332
     6  O   -0.624492
     7  N   -0.783687
     8  H    0.395051
     9  C   -0.273678
    10  H    0.187188
    11  H    0.174970
    12  H    0.174944
 Sum of Mulliken atomic charges =   0.00000
 Mulliken charges with hydrogens summed into heavy atoms:
              1
     1  C    0.000372
     5  C    0.749332
     6  O   -0.624492
     7  N   -0.388636
     9  C    0.263424
 Sum of Mulliken charges with hydrogens summed into heavy atoms =   0.00000
 Electronic spatial extent (au):  <R**2>=            451.1392
 Charge=              0.0000 electrons
 Dipole moment (field-independent basis, Debye):
    X=              4.0160    Y=             -1.8134    Z=              0.0001  Tot=              4.4064
 Quadrupole moment (field-independent basis, Debye-Ang):
   XX=            -34.0068   YY=            -29.4312   ZZ=            -31.1701
   XY=              5.0965   XZ=              0.0007   YZ=             -0.0008
 Traceless Quadrupole moment (field-independent basis, Debye-Ang):
   XX=             -2.4708   YY=              2.1048   ZZ=              0.3659
   XY=              5.0965   XZ=              0.0007   YZ=             -0.0008
 Octapole moment (field-independent basis, Debye-Ang**2):
  XXX=             13.3468  YYY=              8.2282  ZZZ=              0.0001  XYY=              4.5512
  XXY=             -4.5405  XXZ=              0.0006  XZZ=             -1.1806  YZZ=             -0.4589
  YYZ=              0.0013  XYZ=              0.0006
 Hexadecapole moment (field-independent basis, Debye-Ang**3):
 XXXX=           -351.5325 YYYY=           -174.3753 ZZZZ=            -41.9401 XXXY=             15.5152
 XXXZ=              0.0120 YYYX=              6.7383 YYYZ=             -0.0038 ZZZX=             -0.0046
 ZZZY=             -0.0032 XXYY=            -89.2079 XXZZ=            -66.3142 YYZZ=            -36.6268
 XXYZ=              0.0069 YYXZ=              0.0029 ZZXY=             -2.9504
 N-N= 1.796863742909D+02 E-N=-9.380615118725D+02  KE= 2.463396942141D+02
 B after Tr=     0.670524    0.724719   -0.486512
         Rot=    0.611228   -0.488555    0.379426   -0.493711 Ang= 104.64 deg.
 Final structure in terms of initial Z-matrix:
 C
 H,1,B1
 H,1,B2,2,A1
 H,1,B3,3,A2,2,D1,0
 C,1,B4,4,A3,2,D2,0
 O,5,B5,1,A4,4,D3,0
 N,5,B6,1,A5,6,D4,0
 H,7,B7,5,A6,1,D5,0
 C,7,B8,5,A7,1,D6,0
 H,9,B9,7,A8,5,D7,0
 H,9,B10,7,A9,5,D8,0
 H,9,B11,7,A10,5,D9,0
      Variables:
 B1=1.09417819
 B2=1.08914551
 B3=1.09418344
 B4=1.51439601
 B5=1.23267159
 B6=1.3691755
 B7=1.01250713
 B8=1.45038212
 B9=1.09068866
 B10=1.09468404
 B11=1.09470398
 A1=109.38682525
 A2=109.38291617
 A3=111.24712257
 A4=122.81639413
 A5=115.79801296
 A6=113.88068246
 A7=126.86311309
 A8=108.08438962
 A9=111.99927514
 A10=112.00760898
 D1=-117.82613079
 D2=-122.2076377
 D3=-119.86903656
 D4=179.99931481
 D5=179.99156601
 D6=0.
 D7=-179.92441828
 D8=-61.08925493
 D9=61.2328383
 1|1|UNPC-DRBAHAA-PC|Scan|RMP2-FC|6-31G(d)|C3H7N1O1|DR.BAHAA|05-Feb-201
 5|0||# opt=modredundant MP2/6-31g(d) geom=connectivity||Title Card Req
 uired||0,1|C,-1.1811069588,0.4574258066,0.7883535723|H,-1.5229948911,1
 .3143384294,1.3766046264|H,-0.3197729769,0.0040086094,1.2769787475|H,-
 1.9993526158,-0.2679030121,0.748234246|C,-0.7544958451,0.8809362578,-0
 .6016238101|O,0.3874649976,0.7070805553,-1.0319479701|N,-1.7215669522,
 1.476744715,-1.3661022656|H,-1.405274021,1.7480682249,-2.2888768968|C,
 -3.0953878527,1.7390200565,-0.9821282114|H,-3.5953891493,2.2223588843,
 -1.8223567736|H,-3.6391807513,0.8178446262,-0.7496239095|H,-3.15927385
 49,2.4098067682,-0.1193764734||Version=IA32W-G09RevC.01|State=1-A|HF=-
 247.003114,-247.0029218,-247.0003453,-246.9955854,-246.9893704,-246.98
 27094,-246.9765575,-246.9716273,-246.9694044,-246.9962189,-246.9984356
 ,-246.9992998,-246.9993727|MP2=-247.7295199,-247.7291754,-247.7268241,
 -247.7223132,-247.7162881,-247.7097568,-247.7037332,-247.6988304,-247.
 6961728,-247.7234085,-247.7253957,-247.7259645,-247.7257909|RMSD=6.977
 e-009,7.471e-009,6.989e-009,5.701e-009,5.696e-009,8.860e-009,7.361e-00
 9,5.914e-009,9.368e-009,4.058e-009,9.715e-009,5.238e-009,4.149e-009|PG
 =C01 [X(C3H7N1O1)]||@


 DESK:  A WASTEBASKET WITH DRAWERS.
 Job cpu time:  0 days  0 hours 20 minutes 40.0 seconds.
 File lengths (MBytes):  RWF=      9 Int=      0 D2E=      0 Chk=      2 Scr=      1
 Normal termination of Gaussian 09 at Thu Feb 05 11:09:05 2015.
