 Entering Link 1 = C:\G09W\l1.exe PID=      2784.
  
 Copyright (c) 1988,1990,1992,1993,1995,1998,2003,2009,2011,
            Gaussian, Inc.  All Rights Reserved.
  
 This is part of the Gaussian(R) 09 program.  It is based on
 the Gaussian(R) 03 system (copyright 2003, Gaussian, Inc.),
 the Gaussian(R) 98 system (copyright 1998, Gaussian, Inc.),
 the Gaussian(R) 94 system (copyright 1995, Gaussian, Inc.),
 the Gaussian 92(TM) system (copyright 1992, Gaussian, Inc.),
 the Gaussian 90(TM) system (copyright 1990, Gaussian, Inc.),
 the Gaussian 88(TM) system (copyright 1988, Gaussian, Inc.),
 the Gaussian 86(TM) system (copyright 1986, Carnegie Mellon
 University), and the Gaussian 82(TM) system (copyright 1983,
 Carnegie Mellon University). Gaussian is a federally registered
 trademark of Gaussian, Inc.
  
 This software contains proprietary and confidential information,
 including trade secrets, belonging to Gaussian, Inc.
  
 This software is provided under written license and may be
 used, copied, transmitted, or stored only in accord with that
 written license.
  
 The following legend is applicable only to US Government
 contracts under FAR:
  
                    RESTRICTED RIGHTS LEGEND
  
 Use, reproduction and disclosure by the US Government is
 subject to restrictions as set forth in subparagraphs (a)
 and (c) of the Commercial Computer Software - Restricted
 Rights clause in FAR 52.227-19.
  
 Gaussian, Inc.
 340 Quinnipiac St., Bldg. 40, Wallingford CT 06492
  
  
 ---------------------------------------------------------------
 Warning -- This program may not be used in any manner that
 competes with the business of Gaussian, Inc. or will provide
 assistance to any competitor of Gaussian, Inc.  The licensee
 of this program is prohibited from giving any competitor of
 Gaussian, Inc. access to this program.  By using this program,
 the user acknowledges that Gaussian, Inc. is engaged in the
 business of creating and licensing software in the field of
 computational chemistry and represents and warrants to the
 licensee that it is not a competitor of Gaussian, Inc. and that
 it will not use this program in any manner prohibited above.
 ---------------------------------------------------------------
  

 Cite this work as:
 Gaussian 09, Revision C.01,
 M. J. Frisch, G. W. Trucks, H. B. Schlegel, G. E. Scuseria, 
 M. A. Robb, J. R. Cheeseman, G. Scalmani, V. Barone, B. Mennucci, 
 G. A. Petersson, H. Nakatsuji, M. Caricato, X. Li, H. P. Hratchian, 
 A. F. Izmaylov, J. Bloino, G. Zheng, J. L. Sonnenberg, M. Hada, 
 M. Ehara, K. Toyota, R. Fukuda, J. Hasegawa, M. Ishida, T. Nakajima, 
 Y. Honda, O. Kitao, H. Nakai, T. Vreven, J. A. Montgomery, Jr., 
 J. E. Peralta, F. Ogliaro, M. Bearpark, J. J. Heyd, E. Brothers, 
 K. N. Kudin, V. N. Staroverov, T. Keith, R. Kobayashi, J. Normand, 
 K. Raghavachari, A. Rendell, J. C. Burant, S. S. Iyengar, J. Tomasi, 
 M. Cossi, N. Rega, J. M. Millam, M. Klene, J. E. Knox, J. B. Cross, 
 V. Bakken, C. Adamo, J. Jaramillo, R. Gomperts, R. E. Stratmann, 
 O. Yazyev, A. J. Austin, R. Cammi, C. Pomelli, J. W. Ochterski, 
 R. L. Martin, K. Morokuma, V. G. Zakrzewski, G. A. Voth, 
 P. Salvador, J. J. Dannenberg, S. Dapprich, A. D. Daniels, 
 O. Farkas, J. B. Foresman, J. V. Ortiz, J. Cioslowski, 
 and D. J. Fox, Gaussian, Inc., Wallingford CT, 2010.
 
 ******************************************
 Gaussian 09:  IA32W-G09RevC.01 23-Sep-2011
                20-Sep-2019 
 ******************************************
 %nprocshared=4
 Will use up to    4 processors via shared memory.
 -------------------------------------------------
 # opt=modredundant mp2/6-31g(d) geom=connectivity
 -------------------------------------------------
 1/18=120,19=15,38=1,57=2/1,3;
 2/9=110,12=2,17=6,18=5,40=1/2;
 3/5=1,6=6,7=1,11=9,16=1,25=1,30=1,71=1/1,2,3;
 4//1;
 5/5=2,38=5/2;
 8/6=4,10=2/1;
 9/15=2,16=-3/6;
 10/5=1/2;
 6/7=2,8=2,9=2,10=2/1;
 7/12=2/1,2,3,16;
 1/18=20,19=15/3(2);
 2/9=110/2;
 99//99;
 2/9=110/2;
 3/5=1,6=6,7=1,11=9,16=1,25=1,30=1,71=1/1,2,3;
 4/5=5,16=3/1;
 5/5=2,38=5/2;
 8/6=4,10=2/1;
 9/15=2,16=-3/6;
 10/5=1/2;
 7/12=2/1,2,3,16;
 1/18=20,19=15/3(-8);
 2/9=110/2;
 6/7=2,8=2,9=2,10=2/1;
 99//99;
 -------------------
 Title Card Required
 -------------------
 Charge =  0 Multiplicity = 1
 Symbolic Z-Matrix:
 C                    -1.05053   0.44232  -1.38927 
 H                    -1.3772    1.48243  -1.42355 
 H                    -1.92788  -0.19077  -1.54756 
 H                    -0.33526   0.25953  -2.19532 
 C                    -0.4831    0.16556  -0.01128 
 O                    -1.01061   0.60834   1.01108 
 N                     0.62115  -0.64058   0.00866 
 H                     0.93655  -1.0128    0.89309 
 C                     1.29368  -1.0556   -1.20702 
 H                     2.35668  -0.80214  -1.1692 
 H                     1.18741  -2.1318   -1.37438 
 H                     0.82252  -0.51806  -2.02911 
 
 The following ModRedundant input section has been read:
 D       1       5       7       9 S  12 15.000                                

 GradGradGradGradGradGradGradGradGradGradGradGradGradGradGradGradGradGrad
 Berny optimization.
 Initialization pass.
                           ----------------------------
                           !    Initial Parameters    !
                           ! (Angstroms and Degrees)  !
 --------------------------                            --------------------------
 ! Name  Definition              Value          Derivative Info.                !
 --------------------------------------------------------------------------------
 ! R1    R(1,2)                  1.0907         estimate D2E/DX2                !
 ! R2    R(1,3)                  1.0934         estimate D2E/DX2                !
 ! R3    R(1,4)                  1.093          estimate D2E/DX2                !
 ! R4    R(1,5)                  1.5157         estimate D2E/DX2                !
 ! R5    R(5,6)                  1.2327         estimate D2E/DX2                !
 ! R6    R(5,7)                  1.3673         estimate D2E/DX2                !
 ! R7    R(7,8)                  1.0101         estimate D2E/DX2                !
 ! R8    R(7,9)                  1.45           estimate D2E/DX2                !
 ! R9    R(9,10)                 1.0935         estimate D2E/DX2                !
 ! R10   R(9,11)                 1.0943         estimate D2E/DX2                !
 ! R11   R(9,12)                 1.0894         estimate D2E/DX2                !
 ! A1    A(2,1,3)              107.8946         estimate D2E/DX2                !
 ! A2    A(2,1,4)              109.4072         estimate D2E/DX2                !
 ! A3    A(2,1,5)              108.3492         estimate D2E/DX2                !
 ! A4    A(3,1,4)              108.7527         estimate D2E/DX2                !
 ! A5    A(3,1,5)              109.042          estimate D2E/DX2                !
 ! A6    A(4,1,5)              113.2604         estimate D2E/DX2                !
 ! A7    A(1,5,6)              121.8849         estimate D2E/DX2                !
 ! A8    A(1,5,7)              115.0392         estimate D2E/DX2                !
 ! A9    A(6,5,7)              123.043          estimate D2E/DX2                !
 ! A10   A(5,7,8)              118.8291         estimate D2E/DX2                !
 ! A11   A(5,7,9)              122.0796         estimate D2E/DX2                !
 ! A12   A(8,7,9)              118.9358         estimate D2E/DX2                !
 ! A13   A(7,9,10)             110.8273         estimate D2E/DX2                !
 ! A14   A(7,9,11)             111.387          estimate D2E/DX2                !
 ! A15   A(7,9,12)             106.9101         estimate D2E/DX2                !
 ! A16   A(10,9,11)            109.1266         estimate D2E/DX2                !
 ! A17   A(10,9,12)            109.4014         estimate D2E/DX2                !
 ! A18   A(11,9,12)            109.1386         estimate D2E/DX2                !
 ! D1    D(2,1,5,6)             40.7114         estimate D2E/DX2                !
 ! D2    D(2,1,5,7)           -141.3165         estimate D2E/DX2                !
 ! D3    D(3,1,5,6)            -76.4785         estimate D2E/DX2                !
 ! D4    D(3,1,5,7)            101.4936         estimate D2E/DX2                !
 ! D5    D(4,1,5,6)            162.2868         estimate D2E/DX2                !
 ! D6    D(4,1,5,7)            -19.7411         estimate D2E/DX2                !
 ! D7    D(1,5,7,8)           -167.9167         estimate D2E/DX2                !
 ! D8    D(1,5,7,9)              7.5            Scan                            !
 ! D9    D(6,5,7,8)             10.0293         estimate D2E/DX2                !
 ! D10   D(6,5,7,9)           -174.5541         estimate D2E/DX2                !
 ! D11   D(5,7,9,10)           125.5199         estimate D2E/DX2                !
 ! D12   D(5,7,9,11)          -112.7801         estimate D2E/DX2                !
 ! D13   D(5,7,9,12)             6.3685         estimate D2E/DX2                !
 ! D14   D(8,7,9,10)           -59.0681         estimate D2E/DX2                !
 ! D15   D(8,7,9,11)            62.6319         estimate D2E/DX2                !
 ! D16   D(8,7,9,12)          -178.2196         estimate D2E/DX2                !
 --------------------------------------------------------------------------------
 Trust Radius=3.00D-01 FncErr=1.00D-07 GrdErr=1.00D-07
 Number of optimizations in scan=  13
 Number of steps in this run=     55 maximum allowed number of steps=    100.
 GradGradGradGradGradGradGradGradGradGradGradGradGradGradGradGradGradGrad

                          Input orientation:                          
 ---------------------------------------------------------------------
 Center     Atomic      Atomic             Coordinates (Angstroms)
 Number     Number       Type             X           Y           Z
 ---------------------------------------------------------------------
      1          6           0       -1.050532    0.442324   -1.389275
      2          1           0       -1.377200    1.482429   -1.423554
      3          1           0       -1.927875   -0.190771   -1.547557
      4          1           0       -0.335264    0.259530   -2.195322
      5          6           0       -0.483098    0.165562   -0.011277
      6          8           0       -1.010607    0.608340    1.011081
      7          7           0        0.621153   -0.640582    0.008662
      8          1           0        0.936545   -1.012797    0.893087
      9          6           0        1.293677   -1.055598   -1.207022
     10          1           0        2.356675   -0.802143   -1.169195
     11          1           0        1.187406   -2.131799   -1.374376
     12          1           0        0.822520   -0.518063   -2.029114
 ---------------------------------------------------------------------
                    Distance matrix (angstroms):
                    1          2          3          4          5
     1  C    0.000000
     2  H    1.090736   0.000000
     3  H    1.093432   1.765848   0.000000
     4  H    1.093039   1.782341   1.777296   0.000000
     5  C    1.515737   2.127929   2.138811   2.191058   0.000000
     6  O    2.406422   2.612636   2.833124   3.295266   1.232694
     7  N    2.433402   3.248359   3.020214   2.565634   1.367346
     8  H    3.357831   4.116600   3.851932   3.574155   2.054700
     9  C    2.787886   3.690807   3.352953   2.315113   2.465354
    10  H    3.634033   4.384723   4.344457   3.070280   3.215827
    11  H    3.410968   4.431960   3.674583   2.951428   3.150633
    12  H    2.200014   3.034377   2.811350   1.404542   2.498729
                    6          7          8          9         10
     6  O    0.000000
     7  N    2.286327   0.000000
     8  H    2.536417   1.010061   0.000000
     9  C    3.605329   1.449970   2.130688   0.000000
    10  H    4.252253   2.103684   2.512798   1.093451   0.000000
    11  H    4.246178   2.111200   2.540962   1.094308   1.782491
    12  H    3.724504   2.051363   2.965978   1.089389   1.781515
                   11         12
    11  H    0.000000
    12  H    1.779316   0.000000
 Stoichiometry    C3H7NO
 Framework group  C1[X(C3H7NO)]
 Deg. of freedom    30
 Full point group                 C1      NOp   1
 Largest Abelian subgroup         C1      NOp   1
 Largest concise Abelian subgroup C1      NOp   1
                         Standard orientation:                         
 ---------------------------------------------------------------------
 Center     Atomic      Atomic             Coordinates (Angstroms)
 Number     Number       Type             X           Y           Z
 ---------------------------------------------------------------------
      1          6           0        0.612615    1.356778    0.022129
      2          1           0        1.385991    1.714325   -0.658866
      3          1           0        0.870484    1.693572    1.029933
      4          1           0       -0.349110    1.793560   -0.259010
      5          6           0        0.613539   -0.158655   -0.008214
      6          8           0        1.660489   -0.808670   -0.038369
      7          7           0       -0.623290   -0.739288    0.044274
      8          1           0       -0.688063   -1.733000    0.213285
      9          6           0       -1.843670    0.039427   -0.037525
     10          1           0       -2.488243   -0.331045   -0.839342
     11          1           0       -2.396289    0.015608    0.906697
     12          1           0       -1.550553    1.066066   -0.254008
 ---------------------------------------------------------------------
 Rotational constants (GHZ):      8.8982243      4.2045797      2.9658539
 Standard basis: 6-31G(d) (6D, 7F)
 There are    89 symmetry adapted basis functions of A   symmetry.
 Integral buffers will be    262144 words long.
 Raffenetti 1 integral format.
 Two-electron integral symmetry is turned on.
    89 basis functions,   168 primitive gaussians,    89 cartesian basis functions
    20 alpha electrons       20 beta electrons
       nuclear repulsion energy       180.9411790840 Hartrees.
 NAtoms=   12 NActive=   12 NUniq=   12 SFac= 1.00D+00 NAtFMM=   60 NAOKFM=F Big=F
 One-electron integrals computed using PRISM.
 NBasis=    89 RedAO= T  NBF=    89
 NBsUse=    89 1.00D-06 NBFU=    89
 Harris functional with IExCor=  205 diagonalized for initial guess.
 ExpMin= 1.61D-01 ExpMax= 5.48D+03 ExpMxC= 8.25D+02 IAcc=1 IRadAn=         1 AccDes= 0.00D+00
 HarFok:  IExCor=  205 AccDes= 0.00D+00 IRadAn=         1 IDoV= 1
 ScaDFX=  1.000000  1.000000  1.000000  1.000000
 FoFCou: FMM=F IPFlag=           0 FMFlag=      100000 FMFlg1=           0
         NFxFlg=           0 DoJE=T BraDBF=F KetDBF=T FulRan=T
         Omega=  0.000000  0.000000  1.000000  0.000000  0.000000 ICntrl=     500 IOpCl=  0
         NMat0=    1 NMatS0=    1 NMatT0=    0 NMatD0=    1 NMtDS0=    0 NMtDT0=    0
         I1Cent=           4 NGrid=           0.
 Petite list used in FoFCou.
 Initial guess orbital symmetries:
       Occupied  (A) (A) (A) (A) (A) (A) (A) (A) (A) (A) (A) (A)
                 (A) (A) (A) (A) (A) (A) (A) (A)
       Virtual   (A) (A) (A) (A) (A) (A) (A) (A) (A) (A) (A) (A)
                 (A) (A) (A) (A) (A) (A) (A) (A) (A) (A) (A) (A)
                 (A) (A) (A) (A) (A) (A) (A) (A) (A) (A) (A) (A)
                 (A) (A) (A) (A) (A) (A) (A) (A) (A) (A) (A) (A)
                 (A) (A) (A) (A) (A) (A) (A) (A) (A) (A) (A) (A)
                 (A) (A) (A) (A) (A) (A) (A) (A) (A)
 The electronic state of the initial guess is 1-A.
 Requested convergence on RMS density matrix=1.00D-08 within 128 cycles.
 Requested convergence on MAX density matrix=1.00D-06.
 Requested convergence on             energy=1.00D-06.
 No special actions if energy rises.
 Keep R1 ints in memory in canonical form, NReq=8885025.
 SCF Done:  E(RHF) =  -246.979497817     A.U. after   14 cycles
             Convg  =    0.5129D-08             -V/T =  2.0022
 ExpMin= 1.61D-01 ExpMax= 5.48D+03 ExpMxC= 8.25D+02 IAcc=3 IRadAn=         5 AccDes= 0.00D+00
 HarFok:  IExCor=  205 AccDes= 0.00D+00 IRadAn=         5 IDoV=-2
 ScaDFX=  1.000000  1.000000  1.000000  1.000000
 Range of M.O.s used for correlation:     6    89
 NBasis=    89 NAE=    20 NBE=    20 NFC=     5 NFV=     0
 NROrb=     84 NOA=    15 NOB=    15 NVA=    69 NVB=    69
 Fully direct method using O(ONN) memory.
 JobTyp=1 Pass  1:  I=   6 to  10 NPSUse=  4 ParTrn=T ParDer=T DoDerP=T.
 JobTyp=1 Pass  2:  I=  11 to  15 NPSUse=  4 ParTrn=T ParDer=T DoDerP=T.
 JobTyp=1 Pass  3:  I=  16 to  20 NPSUse=  4 ParTrn=T ParDer=T DoDerP=T.
 Spin components of T(2) and E(2):
     alpha-alpha T2 =       0.2951804370D-01 E2=     -0.9356783071D-01
     alpha-beta  T2 =       0.1696318759D+00 E2=     -0.5417575879D+00
     beta-beta   T2 =       0.2951804370D-01 E2=     -0.9356783071D-01
 ANorm=    0.1108452959D+01
 E2 =    -0.7288932493D+00 EUMP2 =    -0.24770839106637D+03
          IDoAtm=111111111111
          Differentiating once with respect to electric field.
                with respect to dipole field.
          Differentiating once with respect to nuclear coordinates.
          Keep R1 ints in memory in canonical form, NReq=8842680.
          There are     1 degrees of freedom in the 1st order CPHF.  IDoFFX=0.
 LinEq1:  Iter=  0 NonCon=     1 RMS=6.66D-03 Max=1.17D-01
 AX will form     1 AO Fock derivatives at one time.
 LinEq1:  Iter=  1 NonCon=     1 RMS=2.39D-03 Max=3.34D-02
 LinEq1:  Iter=  2 NonCon=     1 RMS=7.57D-04 Max=9.28D-03
 LinEq1:  Iter=  3 NonCon=     1 RMS=3.35D-04 Max=5.11D-03
 LinEq1:  Iter=  4 NonCon=     1 RMS=6.71D-05 Max=5.16D-04
 LinEq1:  Iter=  5 NonCon=     1 RMS=2.57D-05 Max=3.17D-04
 LinEq1:  Iter=  6 NonCon=     1 RMS=6.74D-06 Max=6.80D-05
 LinEq1:  Iter=  7 NonCon=     1 RMS=1.61D-06 Max=2.15D-05
 LinEq1:  Iter=  8 NonCon=     1 RMS=3.94D-07 Max=5.22D-06
 LinEq1:  Iter=  9 NonCon=     1 RMS=1.09D-07 Max=7.60D-07
 LinEq1:  Iter= 10 NonCon=     1 RMS=3.07D-08 Max=1.95D-07
 LinEq1:  Iter= 11 NonCon=     1 RMS=5.97D-09 Max=4.98D-08
 LinEq1:  Iter= 12 NonCon=     1 RMS=1.36D-09 Max=2.13D-08
 LinEq1:  Iter= 13 NonCon=     1 RMS=4.89D-10 Max=8.19D-09
 LinEq1:  Iter= 14 NonCon=     1 RMS=1.46D-10 Max=2.41D-09
 LinEq1:  Iter= 15 NonCon=     0 RMS=2.89D-11 Max=2.57D-10
 Linear equations converged to 1.000D-10 1.000D-09 after    15 iterations.
 End of Minotr Frequency-dependent properties file   721 does not exist.
 End of Minotr Frequency-dependent properties file   722 does not exist.

 **********************************************************************

            Population analysis using the SCF density.

 **********************************************************************

 Orbital symmetries:
       Occupied  (A) (A) (A) (A) (A) (A) (A) (A) (A) (A) (A) (A)
                 (A) (A) (A) (A) (A) (A) (A) (A)
       Virtual   (A) (A) (A) (A) (A) (A) (A) (A) (A) (A) (A) (A)
                 (A) (A) (A) (A) (A) (A) (A) (A) (A) (A) (A) (A)
                 (A) (A) (A) (A) (A) (A) (A) (A) (A) (A) (A) (A)
                 (A) (A) (A) (A) (A) (A) (A) (A) (A) (A) (A) (A)
                 (A) (A) (A) (A) (A) (A) (A) (A) (A) (A) (A) (A)
                 (A) (A) (A) (A) (A) (A) (A) (A) (A)
 The electronic state is 1-A.
 Alpha  occ. eigenvalues --  -20.51373 -15.58918 -11.35155 -11.27138 -11.23462
 Alpha  occ. eigenvalues --   -1.36104  -1.23012  -1.00614  -0.95555  -0.78779
 Alpha  occ. eigenvalues --   -0.68232  -0.66473  -0.63576  -0.59418  -0.58205
 Alpha  occ. eigenvalues --   -0.56572  -0.52584  -0.50099  -0.40991  -0.38198
 Alpha virt. eigenvalues --    0.19835   0.23140   0.24478   0.27670   0.28860
 Alpha virt. eigenvalues --    0.29835   0.34218   0.35703   0.41012   0.43659
 Alpha virt. eigenvalues --    0.49439   0.63765   0.67785   0.73218   0.74635
 Alpha virt. eigenvalues --    0.80057   0.82691   0.84337   0.91074   0.92517
 Alpha virt. eigenvalues --    0.94984   1.01371   1.04054   1.07520   1.12775
 Alpha virt. eigenvalues --    1.13182   1.14468   1.16857   1.18783   1.20444
 Alpha virt. eigenvalues --    1.21935   1.25864   1.31270   1.35337   1.38645
 Alpha virt. eigenvalues --    1.54579   1.59190   1.62408   1.71322   1.71956
 Alpha virt. eigenvalues --    1.80076   1.94036   2.04474   2.11245   2.11641
 Alpha virt. eigenvalues --    2.15943   2.19550   2.26349   2.30833   2.34750
 Alpha virt. eigenvalues --    2.41668   2.48283   2.53456   2.57004   2.60123
 Alpha virt. eigenvalues --    2.62401   2.76373   2.81694   2.89907   2.98125
 Alpha virt. eigenvalues --    2.99719   3.23818   3.36779   3.48122   4.33840
 Alpha virt. eigenvalues --    4.43188   4.59737   4.73000   4.93134
          Condensed to atoms (all electrons):
              1          2          3          4          5          6
     1  C    5.328381   0.380934   0.377766   0.379280   0.348144  -0.075140
     2  H    0.380934   0.468913  -0.016349  -0.023972  -0.029268   0.001963
     3  H    0.377766  -0.016349   0.477743  -0.024295  -0.025081  -0.000310
     4  H    0.379280  -0.023972  -0.024295   0.565245  -0.035647   0.002891
     5  C    0.348144  -0.029268  -0.025081  -0.035647   4.124777   0.598524
     6  O   -0.075140   0.001963  -0.000310   0.002891   0.598524   8.180677
     7  N   -0.108475   0.002910   0.000421   0.006231   0.292742  -0.088594
     8  H    0.005065  -0.000090  -0.000148  -0.000301  -0.011122   0.005011
     9  C   -0.023122   0.000800   0.001123  -0.029635  -0.025519   0.002055
    10  H    0.000553   0.000023  -0.000035   0.000860   0.000343  -0.000014
    11  H    0.000026  -0.000048   0.000109   0.001190   0.000985  -0.000027
    12  H   -0.016787   0.000725   0.000063  -0.018723  -0.001440   0.000014
              7          8          9         10         11         12
     1  C   -0.108475   0.005065  -0.023122   0.000553   0.000026  -0.016787
     2  H    0.002910  -0.000090   0.000800   0.000023  -0.000048   0.000725
     3  H    0.000421  -0.000148   0.001123  -0.000035   0.000109   0.000063
     4  H    0.006231  -0.000301  -0.029635   0.000860   0.001190  -0.018723
     5  C    0.292742  -0.011122  -0.025519   0.000343   0.000985  -0.001440
     6  O   -0.088594   0.005011   0.002055  -0.000014  -0.000027   0.000014
     7  N    7.300441   0.312576   0.207246  -0.045452  -0.049713  -0.044534
     8  H    0.312576   0.314331  -0.021094  -0.001630  -0.000609   0.002937
     9  C    0.207246  -0.021094   4.935344   0.402172   0.400669   0.415548
    10  H   -0.045452  -0.001630   0.402172   0.526966  -0.037618  -0.025679
    11  H   -0.049713  -0.000609   0.400669  -0.037618   0.541054  -0.029104
    12  H   -0.044534   0.002937   0.415548  -0.025679  -0.029104   0.551479
 Mulliken atomic charges:
              1
     1  C   -0.596625
     2  H    0.213460
     3  H    0.208992
     4  H    0.176877
     5  C    0.762560
     6  O   -0.627052
     7  N   -0.785799
     8  H    0.395074
     9  C   -0.265587
    10  H    0.179511
    11  H    0.173086
    12  H    0.165502
 Sum of Mulliken atomic charges =   0.00000
 Mulliken charges with hydrogens summed into heavy atoms:
              1
     1  C    0.002703
     5  C    0.762560
     6  O   -0.627052
     7  N   -0.390724
     9  C    0.252512
 Sum of Mulliken charges with hydrogens summed into heavy atoms =   0.00000
 Electronic spatial extent (au):  <R**2>=            442.4349
 Charge=              0.0000 electrons
 Dipole moment (field-independent basis, Debye):
    X=             -4.0345    Y=              1.7358    Z=              0.2923  Tot=              4.4018
 Quadrupole moment (field-independent basis, Debye-Ang):
   XX=            -35.3235   YY=            -28.9842   ZZ=            -30.9305
   XY=              4.7170   XZ=              0.1485   YZ=             -0.6242
 Traceless Quadrupole moment (field-independent basis, Debye-Ang):
   XX=             -3.5774   YY=              2.7619   ZZ=              0.8156
   XY=              4.7170   XZ=              0.1485   YZ=             -0.6242
 Octapole moment (field-independent basis, Debye-Ang**2):
  XXX=            -12.7514  YYY=             -8.2468  ZZZ=              0.7465  XYY=             -3.8253
  XXY=              4.9171  XXZ=             -0.2807  XZZ=              1.7187  YZZ=             -0.2534
  YYZ=              1.2268  XYZ=              0.2022
 Hexadecapole moment (field-independent basis, Debye-Ang**3):
 XXXX=           -355.0734 YYYY=           -170.4786 ZZZZ=            -41.7831 XXXY=             10.5450
 XXXZ=             -0.1317 YYYX=              5.7953 YYYZ=             -2.7159 ZZZX=             -0.0911
 ZZZY=              0.9280 XXYY=            -88.0713 XXZZ=            -60.7247 YYZZ=            -36.5333
 XXYZ=             -0.8722 YYXZ=             -0.3327 ZZXY=              0.9488
 N-N= 1.809411790840D+02 E-N=-9.405839350098D+02  KE= 2.464317553758D+02
 Calling FoFJK, ICntrl=      2127 FMM=F ISym2X=0 I1Cent= 0 IOpClX= 0 NMat=1 NMatS=1 NMatT=0.
 ***** Axes restored to original set *****
 -------------------------------------------------------------------
 Center     Atomic                   Forces (Hartrees/Bohr)
 Number     Number              X              Y              Z
 -------------------------------------------------------------------
      1        6          -0.005422200    0.009433377   -0.002900508
      2        1          -0.001099826    0.000007456    0.000996592
      3        1           0.000322462   -0.000796855    0.000450520
      4        1          -0.020023676    0.011832039    0.000852249
      5        6          -0.002519973    0.001707453    0.005969830
      6        8           0.000551189   -0.003399525   -0.000936807
      7        7          -0.001344965    0.000220508   -0.014159167
      8        1          -0.000730186    0.004641034    0.004763749
      9        6           0.007966564   -0.007777180    0.003484082
     10        1           0.000704750   -0.000582326   -0.000307366
     11        1           0.001031868   -0.000911397   -0.001663176
     12        1           0.020563993   -0.014374584    0.003450002
 -------------------------------------------------------------------
 Cartesian Forces:  Max     0.020563993 RMS     0.006990978

 GradGradGradGradGradGradGradGradGradGradGradGradGradGradGradGradGradGrad
 Berny optimization.
 Internal  Forces:  Max     0.089110441 RMS     0.024078023
 Search for a local minimum.
 Step number   1 out of a maximum of   55 on scan point     1 out of    13
 All quantities printed in internal units (Hartrees-Bohrs-Radians)
 Mixed Optimization -- RFO/linear search
 Second derivative matrix not updated -- first step.
 ITU=  0
     Eigenvalues ---    0.00558   0.01031   0.01310   0.01716   0.06950
     Eigenvalues ---    0.07384   0.07561   0.07869   0.15955   0.16000
     Eigenvalues ---    0.16000   0.16000   0.16000   0.16000   0.16000
     Eigenvalues ---    0.22007   0.24981   0.25000   0.30781   0.34320
     Eigenvalues ---    0.34417   0.34419   0.34464   0.34728   0.34883
     Eigenvalues ---    0.38249   0.45962   0.51490   0.899731000.00000
     Eigenvalues --- 1000.000001000.000001000.000001000.000001000.00000
     Eigenvalues --- 1000.000001000.000001000.000001000.000001000.00000
     Eigenvalues --- 1000.000001000.000001000.000001000.000001000.00000
 RFO step:  Lambda=-8.26645080D-02 EMin= 5.57781856D-03
 Linear search not attempted -- first point.
 Maximum step size (   0.300) exceeded in Quadratic search.
    -- Step size scaled by   0.587
 Iteration  1 RMS(Cart)=  0.23119207 RMS(Int)=  0.01305812
 Iteration  2 RMS(Cart)=  0.02300917 RMS(Int)=  0.00019748
 Iteration  3 RMS(Cart)=  0.00037283 RMS(Int)=  0.00013200
 Iteration  4 RMS(Cart)=  0.00000007 RMS(Int)=  0.00013200
 Iteration  1 RMS(Cart)=  0.00001385 RMS(Int)=  0.00001000
 Iteration  2 RMS(Cart)=  0.00000762 RMS(Int)=  0.00001117
 Iteration  3 RMS(Cart)=  0.00000419 RMS(Int)=  0.00001263
 Iteration  4 RMS(Cart)=  0.00000231 RMS(Int)=  0.00001360
 Iteration  5 RMS(Cart)=  0.00000127 RMS(Int)=  0.00001417
 Iteration  6 RMS(Cart)=  0.00000070 RMS(Int)=  0.00001450
 Variable       Old X    -DE/DX   Delta X   Delta X   Delta X     New X
                                 (Linear)    (Quad)   (Total)
    R1        2.06119   0.00031   0.00000   0.00042   0.00042   2.06161
    R2        2.06629   0.00014   0.00000   0.00019   0.00019   2.06648
    R3        2.06554  -0.01571   0.00000  -0.02158  -0.02158   2.04397
    R4        2.86433   0.01410   0.00000   0.02119   0.02119   2.88552
    R5        2.32945  -0.00223   0.00000  -0.00133  -0.00133   2.32812
    R6        2.58391   0.03378   0.00000   0.03317   0.03317   2.61708
    R7        1.90874   0.00223   0.00000   0.00242   0.00242   1.91116
    R8        2.74005   0.01664   0.00000   0.02100   0.02100   2.76105
    R9        2.06632   0.00054   0.00000   0.00074   0.00074   2.06706
   R10        2.06794   0.00105   0.00000   0.00145   0.00145   2.06939
   R11        2.05865  -0.01859   0.00000  -0.02528  -0.02528   2.03336
    A1        1.88312  -0.00016   0.00000  -0.00633  -0.00662   1.87649
    A2        1.90952  -0.00899   0.00000  -0.02103  -0.02095   1.88856
    A3        1.89105  -0.00637   0.00000  -0.01779  -0.01787   1.87318
    A4        1.89809  -0.00631   0.00000  -0.01070  -0.01096   1.88713
    A5        1.90314  -0.00517   0.00000  -0.01271  -0.01299   1.89015
    A6        1.97677   0.02600   0.00000   0.06562   0.06553   2.04229
    A7        2.12729  -0.03922   0.00000  -0.06926  -0.06928   2.05801
    A8        2.00781   0.08180   0.00000   0.14420   0.14418   2.15199
    A9        2.14751  -0.04266   0.00000  -0.07542  -0.07543   2.07207
   A10        2.07396  -0.04933   0.00000  -0.09786  -0.09787   1.97609
   A11        2.13069   0.08911   0.00000   0.17275   0.17275   2.30344
   A12        2.07582  -0.03954   0.00000  -0.07433  -0.07433   2.00149
   A13        1.93430  -0.00443   0.00000  -0.01299  -0.01307   1.92123
   A14        1.94407  -0.00108   0.00000  -0.00332  -0.00362   1.94046
   A15        1.86593   0.02568   0.00000   0.06496   0.06474   1.93067
   A16        1.90462  -0.00208   0.00000  -0.01017  -0.01032   1.89429
   A17        1.90941  -0.00978   0.00000  -0.02250  -0.02251   1.88690
   A18        1.90483  -0.00825   0.00000  -0.01550  -0.01591   1.88892
    D1        0.71055  -0.00323   0.00000  -0.01609  -0.01590   0.69464
    D2       -2.46644  -0.00629   0.00000  -0.03196  -0.03184  -2.49827
    D3       -1.33480   0.00337   0.00000   0.00838   0.00838  -1.32642
    D4        1.77140   0.00031   0.00000  -0.00749  -0.00755   1.76385
    D5        2.83244  -0.00217   0.00000  -0.01252  -0.01261   2.81983
    D6       -0.34455  -0.00523   0.00000  -0.02838  -0.02854  -0.37309
    D7       -2.93070  -0.00050   0.00000  -0.00430  -0.00420  -2.93490
    D8        0.13090   0.00107   0.00000   0.00000   0.00000   0.13090
    D9        0.17504  -0.00348   0.00000  -0.02016  -0.02006   0.15498
   D10       -3.04654  -0.00190   0.00000  -0.01586  -0.01587  -3.06241
   D11        2.19074   0.00317   0.00000   0.01550   0.01537   2.20611
   D12       -1.96838  -0.00331   0.00000  -0.00881  -0.00898  -1.97736
   D13        0.11115   0.00193   0.00000   0.01064   0.01073   0.12188
   D14       -1.03093   0.00432   0.00000   0.01878   0.01879  -1.01214
   D15        1.09313  -0.00215   0.00000  -0.00552  -0.00556   1.08757
   D16       -3.11052   0.00308   0.00000   0.01392   0.01415  -3.09637
         Item               Value     Threshold  Converged?
 Maximum Force            0.089100     0.000450     NO 
 RMS     Force            0.024349     0.000300     NO 
 Maximum Displacement     0.659340     0.001800     NO 
 RMS     Displacement     0.246670     0.001200     NO 
 Predicted change in Energy=-3.816288D-02
 GradGradGradGradGradGradGradGradGradGradGradGradGradGradGradGradGradGrad

                          Input orientation:                          
 ---------------------------------------------------------------------
 Center     Atomic      Atomic             Coordinates (Angstroms)
 Number     Number       Type             X           Y           Z
 ---------------------------------------------------------------------
      1          6           0       -1.226065    0.562768   -1.391197
      2          1           0       -1.566426    1.591728   -1.266367
      3          1           0       -2.114045   -0.068573   -1.484540
      4          1           0       -0.670206    0.500638   -2.316975
      5          6           0       -0.490124    0.168973   -0.112566
      6          8           0       -0.957782    0.548319    0.962230
      7          7           0        0.635670   -0.637502   -0.100913
      8          1           0        0.887849   -0.956855    0.824953
      9          6           0        1.466458   -1.171449   -1.177693
     10          1           0        2.515547   -0.914097   -1.005426
     11          1           0        1.381097   -2.261416   -1.239919
     12          1           0        1.171427   -0.756103   -2.125449
 ---------------------------------------------------------------------
                    Distance matrix (angstroms):
                    1          2          3          4          5
     1  C    0.000000
     2  H    1.090956   0.000000
     3  H    1.093532   1.761841   0.000000
     4  H    1.081621   1.759961   1.761142   0.000000
     5  C    1.526952   2.124598   2.139127   2.236482   0.000000
     6  O    2.368714   2.534915   2.775642   3.292136   1.231988
     7  N    2.563501   3.343198   3.130341   2.812758   1.384900
     8  H    3.418948   4.110031   3.890267   3.797833   2.011278
     9  C    3.209794   4.103827   3.759055   2.942648   2.599892
    10  H    4.040991   4.796848   4.730495   3.724334   3.317272
    11  H    3.846583   4.851320   4.133331   3.605113   3.267903
    12  H    2.833111   3.707583   3.417279   2.237788   2.769155
                    6          7          8          9         10
     6  O    0.000000
     7  N    2.252894   0.000000
     8  H    2.385529   1.011340   0.000000
     9  C    3.662487   1.461083   2.095573   0.000000
    10  H    4.251393   2.104421   2.449798   1.093843   0.000000
    11  H    4.267837   2.118985   2.491761   1.095074   1.776860
    12  H    3.970997   2.097582   2.970789   1.076010   1.756722
                   11         12
    11  H    0.000000
    12  H    1.759003   0.000000
 Stoichiometry    C3H7NO
 Framework group  C1[X(C3H7NO)]
 Deg. of freedom    30
 Full point group                 C1      NOp   1
 Largest Abelian subgroup         C1      NOp   1
 Largest concise Abelian subgroup C1      NOp   1
                         Standard orientation:                         
 ---------------------------------------------------------------------
 Center     Atomic      Atomic             Coordinates (Angstroms)
 Number     Number       Type             X           Y           Z
 ---------------------------------------------------------------------
      1          6           0        1.042080    1.274910    0.013928
      2          1           0        1.904921    1.357379   -0.648560
      3          1           0        1.381511    1.507969    1.026984
      4          1           0        0.318340    2.023443   -0.278992
      5          6           0        0.584094   -0.181453   -0.015056
      6          8           0        1.449603   -1.058092   -0.028897
      7          7           0       -0.746905   -0.561039    0.032956
      8          1           0       -0.873581   -1.551105    0.195837
      9          6           0       -1.985991    0.210961   -0.025726
     10          1           0       -2.635593   -0.180866   -0.813751
     11          1           0       -2.526239    0.164965    0.925695
     12          1           0       -1.778946    1.243717   -0.245603
 ---------------------------------------------------------------------
 Rotational constants (GHZ):      8.7458653      3.8231382      2.7540739
 Standard basis: 6-31G(d) (6D, 7F)
 There are    89 symmetry adapted basis functions of A   symmetry.
 Integral buffers will be    262144 words long.
 Raffenetti 1 integral format.
 Two-electron integral symmetry is turned on.
    89 basis functions,   168 primitive gaussians,    89 cartesian basis functions
    20 alpha electrons       20 beta electrons
       nuclear repulsion energy       177.4748690189 Hartrees.
 NAtoms=   12 NActive=   12 NUniq=   12 SFac= 1.00D+00 NAtFMM=   60 NAOKFM=F Big=F
 One-electron integrals computed using PRISM.
 NBasis=    89 RedAO= T  NBF=    89
 NBsUse=    89 1.00D-06 NBFU=    89
 Initial guess read from the read-write file.
 B after Tr=     0.000000    0.000000    0.000000
         Rot=    1.000000    0.000000    0.000000    0.000000 Ang=   0.00 deg.
 Initial guess orbital symmetries:
       Occupied  (A) (A) (A) (A) (A) (A) (A) (A) (A) (A) (A) (A)
                 (A) (A) (A) (A) (A) (A) (A) (A)
       Virtual   (A) (A) (A) (A) (A) (A) (A) (A) (A) (A) (A) (A)
                 (A) (A) (A) (A) (A) (A) (A) (A) (A) (A) (A) (A)
                 (A) (A) (A) (A) (A) (A) (A) (A) (A) (A) (A) (A)
                 (A) (A) (A) (A) (A) (A) (A) (A) (A) (A) (A) (A)
                 (A) (A) (A) (A) (A) (A) (A) (A) (A) (A) (A) (A)
                 (A) (A) (A) (A) (A) (A) (A) (A) (A)
 Harris functional with IExCor=  205 diagonalized for initial guess.
 ExpMin= 1.61D-01 ExpMax= 5.48D+03 ExpMxC= 8.25D+02 IAcc=1 IRadAn=         1 AccDes= 0.00D+00
 HarFok:  IExCor=  205 AccDes= 0.00D+00 IRadAn=         1 IDoV= 1
 ScaDFX=  1.000000  1.000000  1.000000  1.000000
 FoFCou: FMM=F IPFlag=           0 FMFlag=      100000 FMFlg1=           0
         NFxFlg=           0 DoJE=T BraDBF=F KetDBF=T FulRan=T
         Omega=  0.000000  0.000000  1.000000  0.000000  0.000000 ICntrl=     500 IOpCl=  0
         NMat0=    1 NMatS0=    1 NMatT0=    0 NMatD0=    1 NMtDS0=    0 NMtDT0=    0
         I1Cent=           4 NGrid=           0.
 Petite list used in FoFCou.
 Requested convergence on RMS density matrix=1.00D-08 within 128 cycles.
 Requested convergence on MAX density matrix=1.00D-06.
 Requested convergence on             energy=1.00D-06.
 No special actions if energy rises.
 Keep R1 ints in memory in canonical form, NReq=8885025.
 SCF Done:  E(RHF) =  -246.993872109     A.U. after   14 cycles
             Convg  =    0.5706D-08             -V/T =  2.0029
 ExpMin= 1.61D-01 ExpMax= 5.48D+03 ExpMxC= 8.25D+02 IAcc=3 IRadAn=         5 AccDes= 0.00D+00
 HarFok:  IExCor=  205 AccDes= 0.00D+00 IRadAn=         5 IDoV=-2
 ScaDFX=  1.000000  1.000000  1.000000  1.000000
 Range of M.O.s used for correlation:     6    89
 NBasis=    89 NAE=    20 NBE=    20 NFC=     5 NFV=     0
 NROrb=     84 NOA=    15 NOB=    15 NVA=    69 NVB=    69
 Fully direct method using O(ONN) memory.
 JobTyp=1 Pass  1:  I=   6 to  10 NPSUse=  4 ParTrn=T ParDer=T DoDerP=T.
 JobTyp=1 Pass  2:  I=  11 to  15 NPSUse=  4 ParTrn=T ParDer=T DoDerP=T.
 JobTyp=1 Pass  3:  I=  16 to  20 NPSUse=  4 ParTrn=T ParDer=T DoDerP=T.
 Spin components of T(2) and E(2):
     alpha-alpha T2 =       0.2926122972D-01 E2=     -0.9272769140D-01
     alpha-beta  T2 =       0.1696881349D+00 E2=     -0.5405462805D+00
     beta-beta   T2 =       0.2926122972D-01 E2=     -0.9272769140D-01
 ANorm=    0.1108246631D+01
 E2 =    -0.7260016633D+00 EUMP2 =    -0.24771987377189D+03
          IDoAtm=111111111111
          Differentiating once with respect to electric field.
                with respect to dipole field.
          Differentiating once with respect to nuclear coordinates.
          Keep R1 ints in memory in canonical form, NReq=8842680.
          There are     1 degrees of freedom in the 1st order CPHF.  IDoFFX=0.
 LinEq1:  Iter=  0 NonCon=     1 RMS=6.65D-03 Max=1.21D-01
 AX will form     1 AO Fock derivatives at one time.
 LinEq1:  Iter=  1 NonCon=     1 RMS=2.40D-03 Max=3.50D-02
 LinEq1:  Iter=  2 NonCon=     1 RMS=7.68D-04 Max=9.69D-03
 LinEq1:  Iter=  3 NonCon=     1 RMS=3.39D-04 Max=5.19D-03
 LinEq1:  Iter=  4 NonCon=     1 RMS=6.60D-05 Max=4.71D-04
 LinEq1:  Iter=  5 NonCon=     1 RMS=2.67D-05 Max=3.21D-04
 LinEq1:  Iter=  6 NonCon=     1 RMS=6.49D-06 Max=6.23D-05
 LinEq1:  Iter=  7 NonCon=     1 RMS=1.46D-06 Max=1.84D-05
 LinEq1:  Iter=  8 NonCon=     1 RMS=4.02D-07 Max=5.70D-06
 LinEq1:  Iter=  9 NonCon=     1 RMS=1.23D-07 Max=9.59D-07
 LinEq1:  Iter= 10 NonCon=     1 RMS=2.96D-08 Max=2.35D-07
 LinEq1:  Iter= 11 NonCon=     1 RMS=6.06D-09 Max=4.63D-08
 LinEq1:  Iter= 12 NonCon=     1 RMS=1.67D-09 Max=1.59D-08
 LinEq1:  Iter= 13 NonCon=     1 RMS=5.17D-10 Max=8.34D-09
 LinEq1:  Iter= 14 NonCon=     1 RMS=1.26D-10 Max=2.49D-09
 LinEq1:  Iter= 15 NonCon=     0 RMS=2.38D-11 Max=3.09D-10
 Linear equations converged to 1.000D-10 1.000D-09 after    15 iterations.
 End of Minotr Frequency-dependent properties file   721 does not exist.
 End of Minotr Frequency-dependent properties file   722 does not exist.
 Calling FoFJK, ICntrl=      2127 FMM=F ISym2X=0 I1Cent= 0 IOpClX= 0 NMat=1 NMatS=1 NMatT=0.
 ***** Axes restored to original set *****
 -------------------------------------------------------------------
 Center     Atomic                   Forces (Hartrees/Bohr)
 Number     Number              X              Y              Z
 -------------------------------------------------------------------
      1        6           0.004832708   -0.002453074    0.003222548
      2        1           0.000431806   -0.000719300    0.002160332
      3        1           0.000766162   -0.000919499    0.001108395
      4        1           0.006731464   -0.002705767   -0.004853350
      5        6           0.003987007   -0.001981475    0.004145283
      6        8          -0.002364809   -0.000604289    0.004064584
      7        7          -0.003632473   -0.000059498   -0.015394687
      8        1          -0.002040457    0.005431854    0.004524623
      9        6          -0.004431710   -0.001078965    0.009119483
     10        1          -0.000154310    0.000385541    0.000152426
     11        1          -0.000187601   -0.000100634   -0.000203099
     12        1          -0.003937785    0.004805108   -0.008046537
 -------------------------------------------------------------------
 Cartesian Forces:  Max     0.015394687 RMS     0.004395045

 GradGradGradGradGradGradGradGradGradGradGradGradGradGradGradGradGradGrad
 Berny optimization.
 Using GEDIIS/GDIIS optimizer.
 Internal  Forces:  Max     0.023225453 RMS     0.006181370
 Search for a local minimum.
 Step number   2 out of a maximum of   55 on scan point     1 out of    13
 All quantities printed in internal units (Hartrees-Bohrs-Radians)
 Mixed Optimization -- RFO/linear search
 Update second derivatives using D2CorX and points    1    2
 DE= -1.15D-02 DEPred=-3.82D-02 R= 3.01D-01
 Trust test= 3.01D-01 RLast= 3.07D-01 DXMaxT set to 3.00D-01
 ITU=  0  0
 Use linear search instead of GDIIS.
     Eigenvalues ---    0.00561   0.01032   0.01309   0.01710   0.06511
     Eigenvalues ---    0.07426   0.07526   0.07696   0.15887   0.15995
     Eigenvalues ---    0.16000   0.16000   0.16000   0.16000   0.16404
     Eigenvalues ---    0.23154   0.24969   0.30549   0.33933   0.34319
     Eigenvalues ---    0.34417   0.34419   0.34681   0.34728   0.37911
     Eigenvalues ---    0.45950   0.47542   0.71771   0.902071000.00000
     Eigenvalues --- 1000.000001000.000001000.000001000.000001000.00000
     Eigenvalues --- 1000.000001000.000001000.000001000.000001000.00000
     Eigenvalues --- 1000.000001000.000001000.000001000.000001000.00000
 RFO step:  Lambda=-1.50692542D-03 EMin= 5.60779371D-03
 Quartic linear search produced a step of -0.34141.
 Iteration  1 RMS(Cart)=  0.09797069 RMS(Int)=  0.00461415
 Iteration  2 RMS(Cart)=  0.00510308 RMS(Int)=  0.00013417
 Iteration  3 RMS(Cart)=  0.00001954 RMS(Int)=  0.00013311
 Iteration  4 RMS(Cart)=  0.00000000 RMS(Int)=  0.00013311
 Iteration  1 RMS(Cart)=  0.00003879 RMS(Int)=  0.00002718
 Iteration  2 RMS(Cart)=  0.00002145 RMS(Int)=  0.00003035
 Iteration  3 RMS(Cart)=  0.00001187 RMS(Int)=  0.00003434
 Iteration  4 RMS(Cart)=  0.00000656 RMS(Int)=  0.00003701
 Iteration  5 RMS(Cart)=  0.00000363 RMS(Int)=  0.00003860
 Iteration  6 RMS(Cart)=  0.00000201 RMS(Int)=  0.00003951
 Iteration  7 RMS(Cart)=  0.00000111 RMS(Int)=  0.00004002
 Iteration  8 RMS(Cart)=  0.00000061 RMS(Int)=  0.00004030
 Variable       Old X    -DE/DX   Delta X   Delta X   Delta X     New X
                                 (Linear)    (Quad)   (Total)
    R1        2.06161  -0.00057  -0.00014  -0.00088  -0.00102   2.06058
    R2        2.06648  -0.00019  -0.00006  -0.00027  -0.00033   2.06614
    R3        2.04397   0.00777   0.00737   0.00517   0.01254   2.05651
    R4        2.88552  -0.00928  -0.00724  -0.01078  -0.01801   2.86751
    R5        2.32812   0.00426   0.00046   0.00237   0.00282   2.33094
    R6        2.61708  -0.01724  -0.01133  -0.00520  -0.01652   2.60056
    R7        1.91116   0.00192  -0.00082   0.00393   0.00310   1.91426
    R8        2.76105  -0.00717  -0.00717  -0.00257  -0.00974   2.75131
    R9        2.06706  -0.00003  -0.00025   0.00027   0.00001   2.06708
   R10        2.06939   0.00013  -0.00049   0.00089   0.00039   2.06978
   R11        2.03336   0.01002   0.00863   0.00753   0.01616   2.04952
    A1        1.87649   0.00164   0.00226   0.01463   0.01698   1.89348
    A2        1.88856   0.00367   0.00715   0.01125   0.01836   1.90692
    A3        1.87318  -0.00145   0.00610  -0.00502   0.00110   1.87427
    A4        1.88713   0.00233   0.00374  -0.00223   0.00130   1.88843
    A5        1.89015  -0.00108   0.00443  -0.00857  -0.00422   1.88593
    A6        2.04229  -0.00466  -0.02237  -0.00787  -0.03037   2.01192
    A7        2.05801   0.01229   0.02365   0.00640   0.02997   2.08798
    A8        2.15199  -0.02323  -0.04922  -0.00625  -0.05555   2.09644
    A9        2.07207   0.01092   0.02575   0.00073   0.02640   2.09847
   A10        1.97609  -0.00087   0.03341  -0.04035  -0.00720   1.96889
   A11        2.30344  -0.00983  -0.05898   0.03041  -0.02882   2.27462
   A12        2.00149   0.01071   0.02538   0.01272   0.03785   2.03935
   A13        1.92123  -0.00006   0.00446   0.00003   0.00447   1.92570
   A14        1.94046   0.00068   0.00123   0.00361   0.00488   1.94533
   A15        1.93067  -0.00260  -0.02210  -0.00034  -0.02240   1.90827
   A16        1.89429   0.00038   0.00352   0.00830   0.01179   1.90609
   A17        1.88690   0.00090   0.00768  -0.00475   0.00291   1.88981
   A18        1.88892   0.00077   0.00543  -0.00702  -0.00150   1.88742
    D1        0.69464   0.00002   0.00543   0.10989   0.11531   0.80996
    D2       -2.49827  -0.00003   0.01087   0.13022   0.14099  -2.35729
    D3       -1.32642  -0.00060  -0.00286   0.09973   0.09703  -1.22938
    D4        1.76385  -0.00065   0.00258   0.12006   0.12271   1.88656
    D5        2.81983   0.00051   0.00430   0.11532   0.11961   2.93944
    D6       -0.37309   0.00046   0.00974   0.13564   0.14528  -0.22781
    D7       -2.93490  -0.00270   0.00143  -0.04872  -0.04688  -2.98177
    D8        0.13090  -0.00195   0.00000   0.00000   0.00000   0.13090
    D9        0.15498  -0.00272   0.00685  -0.02809  -0.02097   0.13402
   D10       -3.06241  -0.00197   0.00542   0.02063   0.02591  -3.03650
   D11        2.20611  -0.00065  -0.00525  -0.06502  -0.07049   2.13562
   D12       -1.97736   0.00023   0.00306  -0.05225  -0.04936  -2.02672
   D13        0.12188  -0.00009  -0.00366  -0.05893  -0.06286   0.05902
   D14       -1.01214  -0.00029  -0.00641  -0.01752  -0.02371  -1.03586
   D15        1.08757   0.00059   0.00190  -0.00475  -0.00258   1.08499
   D16       -3.09637   0.00027  -0.00483  -0.01143  -0.01608  -3.11246
         Item               Value     Threshold  Converged?
 Maximum Force            0.023238     0.000450     NO 
 RMS     Force            0.006236     0.000300     NO 
 Maximum Displacement     0.328570     0.001800     NO 
 RMS     Displacement     0.098767     0.001200     NO 
 Predicted change in Energy=-1.284758D-04
 GradGradGradGradGradGradGradGradGradGradGradGradGradGradGradGradGradGrad

                          Input orientation:                          
 ---------------------------------------------------------------------
 Center     Atomic      Atomic             Coordinates (Angstroms)
 Number     Number       Type             X           Y           Z
 ---------------------------------------------------------------------
      1          6           0       -1.174774    0.528213   -1.386163
      2          1           0       -1.399329    1.594055   -1.335579
      3          1           0       -2.116850   -0.021314   -1.463219
      4          1           0       -0.589585    0.326767   -2.281303
      5          6           0       -0.510744    0.142091   -0.077524
      6          8           0       -0.997622    0.524188    0.989446
      7          7           0        0.610916   -0.655201   -0.081241
      8          1           0        0.875543   -0.965044    0.846176
      9          6           0        1.426240   -1.129254   -1.190410
     10          1           0        2.465672   -0.814568   -1.059788
     11          1           0        1.388307   -2.220373   -1.277927
     12          1           0        1.055625   -0.703128   -2.116332
 ---------------------------------------------------------------------
                    Distance matrix (angstroms):
                    1          2          3          4          5
     1  C    0.000000
     2  H    1.090414   0.000000
     3  H    1.093355   1.772159   0.000000
     4  H    1.088257   1.776541   1.767190   0.000000
     5  C    1.517419   2.116716   2.127541   2.212908   0.000000
     6  O    2.382208   2.590700   2.750601   3.302010   1.233481
     7  N    2.508382   3.267048   3.122881   2.691790   1.376158
     8  H    3.378898   4.060060   3.895940   3.687343   2.000190
     9  C    3.090435   3.926999   3.722290   2.715436   2.570357
    10  H    3.893897   4.562429   4.668139   3.482720   3.277055
    11  H    3.759764   4.724839   4.142019   3.377387   3.260153
    12  H    2.650288   3.451583   3.309989   1.947977   2.706408
                    6          7          8          9         10
     6  O    0.000000
     7  N    2.263786   0.000000
     8  H    2.397309   1.012982   0.000000
     9  C    3.655236   1.455930   2.116108   0.000000
    10  H    4.240995   2.103110   2.486735   1.093851   0.000000
    11  H    4.285587   2.118055   2.520038   1.095281   1.784542
    12  H    3.920202   2.083664   2.979510   1.084560   1.765484
                   11         12
    11  H    0.000000
    12  H    1.765116   0.000000
 Stoichiometry    C3H7NO
 Framework group  C1[X(C3H7NO)]
 Deg. of freedom    30
 Full point group                 C1      NOp   1
 Largest Abelian subgroup         C1      NOp   1
 Largest concise Abelian subgroup C1      NOp   1
                         Standard orientation:                         
 ---------------------------------------------------------------------
 Center     Atomic      Atomic             Coordinates (Angstroms)
 Number     Number       Type             X           Y           Z
 ---------------------------------------------------------------------
      1          6           0        0.910525    1.310697    0.013767
      2          1           0        1.665649    1.493752   -0.751270
      3          1           0        1.339159    1.555005    0.989477
      4          1           0        0.059513    1.966992   -0.157577
      5          6           0        0.597601   -0.174000   -0.004032
      6          8           0        1.520754   -0.991526   -0.034246
      7          7           0       -0.708425   -0.605046    0.043982
      8          1           0       -0.786882   -1.606457    0.174951
      9          6           0       -1.952402    0.147739   -0.030654
     10          1           0       -2.564683   -0.211414   -0.862898
     11          1           0       -2.525580    0.067737    0.899241
     12          1           0       -1.728582    1.195303   -0.200315
 ---------------------------------------------------------------------
 Rotational constants (GHZ):      8.7806452      3.9324547      2.8151817
 Standard basis: 6-31G(d) (6D, 7F)
 There are    89 symmetry adapted basis functions of A   symmetry.
 Integral buffers will be    262144 words long.
 Raffenetti 1 integral format.
 Two-electron integral symmetry is turned on.
    89 basis functions,   168 primitive gaussians,    89 cartesian basis functions
    20 alpha electrons       20 beta electrons
       nuclear repulsion energy       178.5153727625 Hartrees.
 NAtoms=   12 NActive=   12 NUniq=   12 SFac= 1.00D+00 NAtFMM=   60 NAOKFM=F Big=F
 One-electron integrals computed using PRISM.
 NBasis=    89 RedAO= T  NBF=    89
 NBsUse=    89 1.00D-06 NBFU=    89
 Initial guess read from the read-write file.
 B after Tr=     0.000000    0.000000    0.000000
         Rot=    1.000000    0.000000    0.000000    0.000000 Ang=   0.00 deg.
 Initial guess orbital symmetries:
       Occupied  (A) (A) (A) (A) (A) (A) (A) (A) (A) (A) (A) (A)
                 (A) (A) (A) (A) (A) (A) (A) (A)
       Virtual   (A) (A) (A) (A) (A) (A) (A) (A) (A) (A) (A) (A)
                 (A) (A) (A) (A) (A) (A) (A) (A) (A) (A) (A) (A)
                 (A) (A) (A) (A) (A) (A) (A) (A) (A) (A) (A) (A)
                 (A) (A) (A) (A) (A) (A) (A) (A) (A) (A) (A) (A)
                 (A) (A) (A) (A) (A) (A) (A) (A) (A) (A) (A) (A)
                 (A) (A) (A) (A) (A) (A) (A) (A) (A)
 Harris functional with IExCor=  205 diagonalized for initial guess.
 ExpMin= 1.61D-01 ExpMax= 5.48D+03 ExpMxC= 8.25D+02 IAcc=1 IRadAn=         1 AccDes= 0.00D+00
 HarFok:  IExCor=  205 AccDes= 0.00D+00 IRadAn=         1 IDoV= 1
 ScaDFX=  1.000000  1.000000  1.000000  1.000000
 FoFCou: FMM=F IPFlag=           0 FMFlag=      100000 FMFlg1=           0
         NFxFlg=           0 DoJE=T BraDBF=F KetDBF=T FulRan=T
         Omega=  0.000000  0.000000  1.000000  0.000000  0.000000 ICntrl=     500 IOpCl=  0
         NMat0=    1 NMatS0=    1 NMatT0=    0 NMatD0=    1 NMtDS0=    0 NMtDT0=    0
         I1Cent=           4 NGrid=           0.
 Petite list used in FoFCou.
 Requested convergence on RMS density matrix=1.00D-08 within 128 cycles.
 Requested convergence on MAX density matrix=1.00D-06.
 Requested convergence on             energy=1.00D-06.
 No special actions if energy rises.
 Keep R1 ints in memory in canonical form, NReq=8885025.
 SCF Done:  E(RHF) =  -246.995439875     A.U. after   13 cycles
             Convg  =    0.4103D-08             -V/T =  2.0028
 ExpMin= 1.61D-01 ExpMax= 5.48D+03 ExpMxC= 8.25D+02 IAcc=3 IRadAn=         5 AccDes= 0.00D+00
 HarFok:  IExCor=  205 AccDes= 0.00D+00 IRadAn=         5 IDoV=-2
 ScaDFX=  1.000000  1.000000  1.000000  1.000000
 Range of M.O.s used for correlation:     6    89
 NBasis=    89 NAE=    20 NBE=    20 NFC=     5 NFV=     0
 NROrb=     84 NOA=    15 NOB=    15 NVA=    69 NVB=    69
 Fully direct method using O(ONN) memory.
 JobTyp=1 Pass  1:  I=   6 to  10 NPSUse=  4 ParTrn=T ParDer=T DoDerP=T.
 JobTyp=1 Pass  2:  I=  11 to  15 NPSUse=  4 ParTrn=T ParDer=T DoDerP=T.
 JobTyp=1 Pass  3:  I=  16 to  20 NPSUse=  4 ParTrn=T ParDer=T DoDerP=T.
 Spin components of T(2) and E(2):
     alpha-alpha T2 =       0.2930489881D-01 E2=     -0.9292530538D-01
     alpha-beta  T2 =       0.1695017775D+00 E2=     -0.5406878382D+00
     beta-beta   T2 =       0.2930489881D-01 E2=     -0.9292530538D-01
 ANorm=    0.1108201956D+01
 E2 =    -0.7265384490D+00 EUMP2 =    -0.24772197832395D+03
          IDoAtm=111111111111
          Differentiating once with respect to electric field.
                with respect to dipole field.
          Differentiating once with respect to nuclear coordinates.
          Keep R1 ints in memory in canonical form, NReq=8842680.
          There are     1 degrees of freedom in the 1st order CPHF.  IDoFFX=0.
 LinEq1:  Iter=  0 NonCon=     1 RMS=6.66D-03 Max=1.22D-01
 AX will form     1 AO Fock derivatives at one time.
 LinEq1:  Iter=  1 NonCon=     1 RMS=2.39D-03 Max=3.40D-02
 LinEq1:  Iter=  2 NonCon=     1 RMS=7.65D-04 Max=9.57D-03
 LinEq1:  Iter=  3 NonCon=     1 RMS=3.37D-04 Max=5.02D-03
 LinEq1:  Iter=  4 NonCon=     1 RMS=6.62D-05 Max=4.74D-04
 LinEq1:  Iter=  5 NonCon=     1 RMS=2.65D-05 Max=3.23D-04
 LinEq1:  Iter=  6 NonCon=     1 RMS=6.66D-06 Max=7.16D-05
 LinEq1:  Iter=  7 NonCon=     1 RMS=1.56D-06 Max=2.09D-05
 LinEq1:  Iter=  8 NonCon=     1 RMS=4.17D-07 Max=5.65D-06
 LinEq1:  Iter=  9 NonCon=     1 RMS=1.24D-07 Max=9.53D-07
 LinEq1:  Iter= 10 NonCon=     1 RMS=3.07D-08 Max=2.48D-07
 LinEq1:  Iter= 11 NonCon=     1 RMS=6.25D-09 Max=6.51D-08
 LinEq1:  Iter= 12 NonCon=     1 RMS=1.81D-09 Max=3.09D-08
 LinEq1:  Iter= 13 NonCon=     1 RMS=6.42D-10 Max=1.25D-08
 LinEq1:  Iter= 14 NonCon=     1 RMS=1.55D-10 Max=2.14D-09
 LinEq1:  Iter= 15 NonCon=     0 RMS=2.67D-11 Max=1.92D-10
 Linear equations converged to 1.000D-10 1.000D-09 after    15 iterations.
 End of Minotr Frequency-dependent properties file   721 does not exist.
 End of Minotr Frequency-dependent properties file   722 does not exist.
 Calling FoFJK, ICntrl=      2127 FMM=F ISym2X=0 I1Cent= 0 IOpClX= 0 NMat=1 NMatS=1 NMatT=0.
 ***** Axes restored to original set *****
 -------------------------------------------------------------------
 Center     Atomic                   Forces (Hartrees/Bohr)
 Number     Number              X              Y              Z
 -------------------------------------------------------------------
      1        6           0.003798215   -0.001680576   -0.000291503
      2        1          -0.001218164   -0.000187055    0.000000094
      3        1          -0.000075105    0.000838406    0.000828976
      4        1           0.000222963    0.000678607   -0.000982384
      5        6           0.002898115    0.000631736    0.002741344
      6        8          -0.000776168   -0.002598329    0.000669733
      7        7          -0.002830067   -0.001572550   -0.006598486
      8        1           0.000476813    0.003460143    0.002109100
      9        6          -0.003998580    0.000467173    0.003559038
     10        1           0.000186778   -0.000633609   -0.000129397
     11        1           0.000497046    0.000269352    0.000423728
     12        1           0.000818154    0.000326701   -0.002330243
 -------------------------------------------------------------------
 Cartesian Forces:  Max     0.006598486 RMS     0.002058476

 GradGradGradGradGradGradGradGradGradGradGradGradGradGradGradGradGradGrad
 Berny optimization.
 Using GEDIIS/GDIIS optimizer.
 Internal  Forces:  Max     0.005287445 RMS     0.001517026
 Search for a local minimum.
 Step number   3 out of a maximum of   55 on scan point     1 out of    13
 All quantities printed in internal units (Hartrees-Bohrs-Radians)
 Mixed Optimization -- RFO/linear search
 Update second derivatives using D2CorX and points    1    2    3
 DE= -2.10D-03 DEPred=-1.28D-04 R= 1.64D+01
 SS=  1.41D+00  RLast= 3.45D-01 DXNew= 5.0454D-01 1.0346D+00
 Trust test= 1.64D+01 RLast= 3.45D-01 DXMaxT set to 5.05D-01
 ITU=  1  0  0
 Use linear search instead of GDIIS.
     Eigenvalues ---    0.00402   0.00997   0.01289   0.01678   0.06755
     Eigenvalues ---    0.07390   0.07639   0.07730   0.15786   0.15999
     Eigenvalues ---    0.16000   0.16000   0.16000   0.16232   0.16696
     Eigenvalues ---    0.23482   0.24914   0.30181   0.32892   0.34320
     Eigenvalues ---    0.34415   0.34417   0.34661   0.34730   0.37857
     Eigenvalues ---    0.40601   0.45938   0.54418   0.903881000.00000
     Eigenvalues --- 1000.000001000.000001000.000001000.000001000.00000
     Eigenvalues --- 1000.000001000.000001000.000001000.000001000.00000
     Eigenvalues --- 1000.000001000.000001000.000001000.000001000.00000
 RFO step:  Lambda=-1.21142759D-03 EMin= 4.02236824D-03
 Quartic linear search produced a step of  0.01512.
 Iteration  1 RMS(Cart)=  0.04271741 RMS(Int)=  0.00123944
 Iteration  2 RMS(Cart)=  0.00154646 RMS(Int)=  0.00030518
 Iteration  3 RMS(Cart)=  0.00000115 RMS(Int)=  0.00030518
 Iteration  4 RMS(Cart)=  0.00000000 RMS(Int)=  0.00030518
 Iteration  1 RMS(Cart)=  0.00005682 RMS(Int)=  0.00004001
 Iteration  2 RMS(Cart)=  0.00003151 RMS(Int)=  0.00004468
 Iteration  3 RMS(Cart)=  0.00001747 RMS(Int)=  0.00005056
 Iteration  4 RMS(Cart)=  0.00000969 RMS(Int)=  0.00005452
 Iteration  5 RMS(Cart)=  0.00000537 RMS(Int)=  0.00005687
 Iteration  6 RMS(Cart)=  0.00000298 RMS(Int)=  0.00005822
 Iteration  7 RMS(Cart)=  0.00000165 RMS(Int)=  0.00005899
 Iteration  8 RMS(Cart)=  0.00000092 RMS(Int)=  0.00005941
 Variable       Old X    -DE/DX   Delta X   Delta X   Delta X     New X
                                 (Linear)    (Quad)   (Total)
    R1        2.06058   0.00007  -0.00002   0.00025   0.00024   2.06082
    R2        2.06614  -0.00042  -0.00001  -0.00124  -0.00124   2.06490
    R3        2.05651   0.00080   0.00019   0.00204   0.00223   2.05874
    R4        2.86751  -0.00090  -0.00027  -0.00238  -0.00265   2.86486
    R5        2.33094   0.00008   0.00004  -0.00006  -0.00001   2.33093
    R6        2.60056  -0.00529  -0.00025  -0.01011  -0.01036   2.59020
    R7        1.91426   0.00100   0.00005   0.00205   0.00210   1.91636
    R8        2.75131  -0.00270  -0.00015  -0.00708  -0.00722   2.74409
    R9        2.06708  -0.00002   0.00000  -0.00007  -0.00007   2.06700
   R10        2.06978  -0.00032   0.00001  -0.00101  -0.00101   2.06877
   R11        2.04952   0.00184   0.00024   0.00495   0.00519   2.05471
    A1        1.89348  -0.00092   0.00026  -0.01290  -0.01268   1.88080
    A2        1.90692  -0.00042   0.00028  -0.00062  -0.00038   1.90654
    A3        1.87427   0.00035   0.00002   0.00142   0.00140   1.87567
    A4        1.88843   0.00042   0.00002   0.00580   0.00581   1.89424
    A5        1.88593  -0.00090  -0.00006  -0.00628  -0.00637   1.87956
    A6        2.01192   0.00132  -0.00046   0.01095   0.01046   2.02238
    A7        2.08798   0.00230   0.00045   0.00871   0.00807   2.09606
    A8        2.09644  -0.00218  -0.00084  -0.00947  -0.01137   2.08508
    A9        2.09847  -0.00014   0.00040  -0.00114  -0.00176   2.09671
   A10        1.96889  -0.00333  -0.00011  -0.01613  -0.01664   1.95225
   A11        2.27462   0.00247  -0.00044   0.00958   0.00874   2.28336
   A12        2.03935   0.00087   0.00057   0.00780   0.00796   2.04730
   A13        1.92570   0.00007   0.00007  -0.00106  -0.00103   1.92467
   A14        1.94533  -0.00059   0.00007  -0.00496  -0.00491   1.94042
   A15        1.90827   0.00257  -0.00034   0.01847   0.01810   1.92637
   A16        1.90609  -0.00064   0.00018  -0.00931  -0.00917   1.89692
   A17        1.88981  -0.00100   0.00004  -0.00408  -0.00407   1.88574
   A18        1.88742  -0.00043  -0.00002   0.00098   0.00094   1.88836
    D1        0.80996  -0.00048   0.00174   0.00088   0.00278   0.81274
    D2       -2.35729  -0.00129   0.00213  -0.08424  -0.08227  -2.43955
    D3       -1.22938   0.00088   0.00147   0.01850   0.02011  -1.20927
    D4        1.88656   0.00007   0.00186  -0.06663  -0.06494   1.82162
    D5        2.93944   0.00013   0.00181   0.00842   0.01040   2.94983
    D6       -0.22781  -0.00068   0.00220  -0.07670  -0.07465  -0.30246
    D7       -2.98177  -0.00189  -0.00071  -0.05473  -0.05521  -3.03698
    D8        0.13090  -0.00129   0.00000   0.00000   0.00000   0.13090
    D9        0.13402  -0.00267  -0.00032  -0.14022  -0.14014  -0.00612
   D10       -3.03650  -0.00207   0.00039  -0.08549  -0.08493  -3.12144
   D11        2.13562   0.00036  -0.00107  -0.01088  -0.01215   2.12347
   D12       -2.02672  -0.00081  -0.00075  -0.02677  -0.02771  -2.05443
   D13        0.05902  -0.00005  -0.00095  -0.01664  -0.01780   0.04122
   D14       -1.03586   0.00093  -0.00036   0.04535   0.04519  -0.99067
   D15        1.08499  -0.00024  -0.00004   0.02946   0.02962   1.11461
   D16       -3.11246   0.00052  -0.00024   0.03958   0.03953  -3.07292
         Item               Value     Threshold  Converged?
 Maximum Force            0.005287     0.000450     NO 
 RMS     Force            0.001506     0.000300     NO 
 Maximum Displacement     0.127769     0.001800     NO 
 RMS     Displacement     0.042670     0.001200     NO 
 Predicted change in Energy=-6.370758D-04
 GradGradGradGradGradGradGradGradGradGradGradGradGradGradGradGradGradGrad

                          Input orientation:                          
 ---------------------------------------------------------------------
 Center     Atomic      Atomic             Coordinates (Angstroms)
 Number     Number       Type             X           Y           Z
 ---------------------------------------------------------------------
      1          6           0       -1.158812    0.541170   -1.385411
      2          1           0       -1.446751    1.590574   -1.313848
      3          1           0       -2.073105   -0.049631   -1.480329
      4          1           0       -0.557087    0.394379   -2.281656
      5          6           0       -0.498072    0.160208   -0.075221
      6          8           0       -1.020002    0.478305    0.996162
      7          7           0        0.608240   -0.648900   -0.088237
      8          1           0        0.896804   -0.908942    0.848508
      9          6           0        1.410364   -1.142618   -1.193432
     10          1           0        2.451990   -0.830553   -1.074875
     11          1           0        1.375876   -2.235363   -1.249943
     12          1           0        1.043954   -0.742197   -2.135580
 ---------------------------------------------------------------------
                    Distance matrix (angstroms):
                    1          2          3          4          5
     1  C    0.000000
     2  H    1.090541   0.000000
     3  H    1.092698   1.763607   0.000000
     4  H    1.089438   1.777368   1.771322   0.000000
     5  C    1.516017   2.116634   2.121107   2.219612   0.000000
     6  O    2.386443   2.599116   2.742399   3.311408   1.233474
     7  N    2.494273   3.277248   3.080041   2.693976   1.370675
     8  H    3.364339   4.051619   3.870693   3.689224   1.985456
     9  C    3.077769   3.955749   3.662171   2.723501   2.567076
    10  H    3.875041   4.595557   4.609850   3.465735   3.268605
    11  H    3.761931   4.754903   4.089740   3.422912   3.260431
    12  H    2.657434   3.510081   3.259610   1.968876   2.727133
                    6          7          8          9         10
     6  O    0.000000
     7  N    2.257805   0.000000
     8  H    2.370738   1.014092   0.000000
     9  C    3.650807   1.452107   2.118459   0.000000
    10  H    4.249356   2.099016   2.474702   1.093812   0.000000
    11  H    4.260189   2.110850   2.528319   1.094749   1.778247
    12  H    3.944280   2.095272   2.992363   1.087308   1.765069
                   11         12
    11  H    0.000000
    12  H    1.767505   0.000000
 Stoichiometry    C3H7NO
 Framework group  C1[X(C3H7NO)]
 Deg. of freedom    30
 Full point group                 C1      NOp   1
 Largest Abelian subgroup         C1      NOp   1
 Largest concise Abelian subgroup C1      NOp   1
                         Standard orientation:                         
 ---------------------------------------------------------------------
 Center     Atomic      Atomic             Coordinates (Angstroms)
 Number     Number       Type             X           Y           Z
 ---------------------------------------------------------------------
      1          6           0        0.895396    1.314691    0.009136
      2          1           0        1.696360    1.510407   -0.704608
      3          1           0        1.273833    1.548391    1.007214
      4          1           0        0.054577    1.973389   -0.205376
      5          6           0        0.599567   -0.171525   -0.035066
      6          8           0        1.524280   -0.987343   -0.006729
      7          7           0       -0.700230   -0.602367    0.025392
      8          1           0       -0.760586   -1.612881    0.085391
      9          6           0       -1.948632    0.138376   -0.012137
     10          1           0       -2.566022   -0.201461   -0.848656
     11          1           0       -2.513757    0.008295    0.916403
     12          1           0       -1.755029    1.199918   -0.145877
 ---------------------------------------------------------------------
 Rotational constants (GHZ):      8.7954244      3.9515269      2.8238607
 Standard basis: 6-31G(d) (6D, 7F)
 There are    89 symmetry adapted basis functions of A   symmetry.
 Integral buffers will be    262144 words long.
 Raffenetti 1 integral format.
 Two-electron integral symmetry is turned on.
    89 basis functions,   168 primitive gaussians,    89 cartesian basis functions
    20 alpha electrons       20 beta electrons
       nuclear repulsion energy       178.7656759043 Hartrees.
 NAtoms=   12 NActive=   12 NUniq=   12 SFac= 1.00D+00 NAtFMM=   60 NAOKFM=F Big=F
 One-electron integrals computed using PRISM.
 NBasis=    89 RedAO= T  NBF=    89
 NBsUse=    89 1.00D-06 NBFU=    89
 Initial guess read from the read-write file.
 B after Tr=     0.000000    0.000000    0.000000
         Rot=    1.000000    0.000000    0.000000    0.000000 Ang=   0.00 deg.
 Initial guess orbital symmetries:
       Occupied  (A) (A) (A) (A) (A) (A) (A) (A) (A) (A) (A) (A)
                 (A) (A) (A) (A) (A) (A) (A) (A)
       Virtual   (A) (A) (A) (A) (A) (A) (A) (A) (A) (A) (A) (A)
                 (A) (A) (A) (A) (A) (A) (A) (A) (A) (A) (A) (A)
                 (A) (A) (A) (A) (A) (A) (A) (A) (A) (A) (A) (A)
                 (A) (A) (A) (A) (A) (A) (A) (A) (A) (A) (A) (A)
                 (A) (A) (A) (A) (A) (A) (A) (A) (A) (A) (A) (A)
                 (A) (A) (A) (A) (A) (A) (A) (A) (A)
 Harris functional with IExCor=  205 diagonalized for initial guess.
 ExpMin= 1.61D-01 ExpMax= 5.48D+03 ExpMxC= 8.25D+02 IAcc=1 IRadAn=         1 AccDes= 0.00D+00
 HarFok:  IExCor=  205 AccDes= 0.00D+00 IRadAn=         1 IDoV= 1
 ScaDFX=  1.000000  1.000000  1.000000  1.000000
 FoFCou: FMM=F IPFlag=           0 FMFlag=      100000 FMFlg1=           0
         NFxFlg=           0 DoJE=T BraDBF=F KetDBF=T FulRan=T
         Omega=  0.000000  0.000000  1.000000  0.000000  0.000000 ICntrl=     500 IOpCl=  0
         NMat0=    1 NMatS0=    1 NMatT0=    0 NMatD0=    1 NMtDS0=    0 NMtDT0=    0
         I1Cent=           4 NGrid=           0.
 Petite list used in FoFCou.
 Requested convergence on RMS density matrix=1.00D-08 within 128 cycles.
 Requested convergence on MAX density matrix=1.00D-06.
 Requested convergence on             energy=1.00D-06.
 No special actions if energy rises.
 Keep R1 ints in memory in canonical form, NReq=8885025.
 SCF Done:  E(RHF) =  -246.995927696     A.U. after   12 cycles
             Convg  =    0.6341D-08             -V/T =  2.0027
 ExpMin= 1.61D-01 ExpMax= 5.48D+03 ExpMxC= 8.25D+02 IAcc=3 IRadAn=         5 AccDes= 0.00D+00
 HarFok:  IExCor=  205 AccDes= 0.00D+00 IRadAn=         5 IDoV=-2
 ScaDFX=  1.000000  1.000000  1.000000  1.000000
 Range of M.O.s used for correlation:     6    89
 NBasis=    89 NAE=    20 NBE=    20 NFC=     5 NFV=     0
 NROrb=     84 NOA=    15 NOB=    15 NVA=    69 NVB=    69
 Fully direct method using O(ONN) memory.
 JobTyp=1 Pass  1:  I=   6 to  10 NPSUse=  4 ParTrn=T ParDer=T DoDerP=T.
 JobTyp=1 Pass  2:  I=  11 to  15 NPSUse=  4 ParTrn=T ParDer=T DoDerP=T.
 JobTyp=1 Pass  3:  I=  16 to  20 NPSUse=  4 ParTrn=T ParDer=T DoDerP=T.
 Spin components of T(2) and E(2):
     alpha-alpha T2 =       0.2929189018D-01 E2=     -0.9295904833D-01
     alpha-beta  T2 =       0.1693453472D+00 E2=     -0.5406029893D+00
     beta-beta   T2 =       0.2929189018D-01 E2=     -0.9295904833D-01
 ANorm=    0.1108119636D+01
 E2 =    -0.7265210859D+00 EUMP2 =    -0.24772244878182D+03
          IDoAtm=111111111111
          Differentiating once with respect to electric field.
                with respect to dipole field.
          Differentiating once with respect to nuclear coordinates.
          Keep R1 ints in memory in canonical form, NReq=8842680.
          There are     1 degrees of freedom in the 1st order CPHF.  IDoFFX=0.
 LinEq1:  Iter=  0 NonCon=     1 RMS=6.66D-03 Max=1.21D-01
 AX will form     1 AO Fock derivatives at one time.
 LinEq1:  Iter=  1 NonCon=     1 RMS=2.39D-03 Max=3.36D-02
 LinEq1:  Iter=  2 NonCon=     1 RMS=7.62D-04 Max=9.47D-03
 LinEq1:  Iter=  3 NonCon=     1 RMS=3.36D-04 Max=4.93D-03
 LinEq1:  Iter=  4 NonCon=     1 RMS=6.61D-05 Max=4.74D-04
 LinEq1:  Iter=  5 NonCon=     1 RMS=2.64D-05 Max=3.18D-04
 LinEq1:  Iter=  6 NonCon=     1 RMS=6.81D-06 Max=7.79D-05
 LinEq1:  Iter=  7 NonCon=     1 RMS=1.64D-06 Max=2.11D-05
 LinEq1:  Iter=  8 NonCon=     1 RMS=4.40D-07 Max=5.12D-06
 LinEq1:  Iter=  9 NonCon=     1 RMS=1.31D-07 Max=1.28D-06
 LinEq1:  Iter= 10 NonCon=     1 RMS=3.35D-08 Max=4.07D-07
 LinEq1:  Iter= 11 NonCon=     1 RMS=8.34D-09 Max=1.49D-07
 LinEq1:  Iter= 12 NonCon=     1 RMS=2.70D-09 Max=4.15D-08
 LinEq1:  Iter= 13 NonCon=     1 RMS=8.41D-10 Max=7.62D-09
 LinEq1:  Iter= 14 NonCon=     1 RMS=1.72D-10 Max=1.20D-09
 LinEq1:  Iter= 15 NonCon=     0 RMS=2.88D-11 Max=2.45D-10
 Linear equations converged to 1.000D-10 1.000D-09 after    15 iterations.
 End of Minotr Frequency-dependent properties file   721 does not exist.
 End of Minotr Frequency-dependent properties file   722 does not exist.
 Calling FoFJK, ICntrl=      2127 FMM=F ISym2X=0 I1Cent= 0 IOpClX= 0 NMat=1 NMatS=1 NMatT=0.
 ***** Axes restored to original set *****
 -------------------------------------------------------------------
 Center     Atomic                   Forces (Hartrees/Bohr)
 Number     Number              X              Y              Z
 -------------------------------------------------------------------
      1        6           0.002233990    0.001966431   -0.000125434
      2        1          -0.000574029    0.000178582   -0.000112494
      3        1          -0.000097246   -0.000238285    0.000127304
      4        1           0.000327393    0.000705689    0.000310411
      5        6          -0.004538709   -0.008001759    0.000182902
      6        8           0.001591980    0.003127793    0.000573293
      7        7           0.000498205    0.001055738   -0.002917886
      8        1           0.000446132    0.000864009    0.000572114
      9        6          -0.000176307    0.000704033    0.001675327
     10        1           0.000580167   -0.000277723   -0.000489604
     11        1          -0.000211396   -0.000037775    0.000094084
     12        1          -0.000080181   -0.000046731    0.000109984
 -------------------------------------------------------------------
 Cartesian Forces:  Max     0.008001759 RMS     0.001845048

 GradGradGradGradGradGradGradGradGradGradGradGradGradGradGradGradGradGrad
 Berny optimization.
 Using GEDIIS/GDIIS optimizer.
 Internal  Forces:  Max     0.001974655 RMS     0.000791183
 Search for a local minimum.
 Step number   4 out of a maximum of   55 on scan point     1 out of    13
 All quantities printed in internal units (Hartrees-Bohrs-Radians)
 Mixed Optimization -- En-DIIS/RFO-DIIS
 Update second derivatives using D2CorX and points    1    2    3    4
 DE= -4.70D-04 DEPred=-6.37D-04 R= 7.38D-01
 SS=  1.41D+00  RLast= 2.33D-01 DXNew= 8.4853D-01 6.9915D-01
 Trust test= 7.38D-01 RLast= 2.33D-01 DXMaxT set to 6.99D-01
 ITU=  1  1  0  0
 Use linear search instead of GDIIS.
     Eigenvalues ---    0.00330   0.00928   0.01026   0.03223   0.06657
     Eigenvalues ---    0.07481   0.07534   0.07723   0.14705   0.15999
     Eigenvalues ---    0.16000   0.16000   0.16024   0.16488   0.17094
     Eigenvalues ---    0.22758   0.24949   0.30786   0.32767   0.34335
     Eigenvalues ---    0.34406   0.34456   0.34634   0.34725   0.37686
     Eigenvalues ---    0.38224   0.45821   0.51720   0.902781000.00000
     Eigenvalues --- 1000.000001000.000001000.000001000.000001000.00000
     Eigenvalues --- 1000.000001000.000001000.000001000.000001000.00000
     Eigenvalues --- 1000.000001000.000001000.000001000.000001000.00000
 RFO step:  Lambda=-6.84552419D-04 EMin= 3.30285568D-03
 Quartic linear search produced a step of -0.18634.
 Iteration  1 RMS(Cart)=  0.02939106 RMS(Int)=  0.00090104
 Iteration  2 RMS(Cart)=  0.00139321 RMS(Int)=  0.00032432
 Iteration  3 RMS(Cart)=  0.00000065 RMS(Int)=  0.00032432
 Iteration  1 RMS(Cart)=  0.00002861 RMS(Int)=  0.00002019
 Iteration  2 RMS(Cart)=  0.00001591 RMS(Int)=  0.00002254
 Iteration  3 RMS(Cart)=  0.00000884 RMS(Int)=  0.00002552
 Iteration  4 RMS(Cart)=  0.00000492 RMS(Int)=  0.00002752
 Iteration  5 RMS(Cart)=  0.00000273 RMS(Int)=  0.00002872
 Iteration  6 RMS(Cart)=  0.00000152 RMS(Int)=  0.00002941
 Iteration  7 RMS(Cart)=  0.00000084 RMS(Int)=  0.00002980
 Variable       Old X    -DE/DX   Delta X   Delta X   Delta X     New X
                                 (Linear)    (Quad)   (Total)
    R1        2.06082   0.00032  -0.00004   0.00080   0.00076   2.06158
    R2        2.06490   0.00020   0.00023  -0.00049  -0.00026   2.06464
    R3        2.05874  -0.00017  -0.00042   0.00267   0.00226   2.06100
    R4        2.86486  -0.00034   0.00049  -0.00478  -0.00429   2.86057
    R5        2.33093   0.00063   0.00000   0.00083   0.00083   2.33176
    R6        2.59020  -0.00047   0.00193  -0.01032  -0.00839   2.58182
    R7        1.91636   0.00043  -0.00039   0.00259   0.00220   1.91855
    R8        2.74409  -0.00111   0.00135  -0.00882  -0.00747   2.73661
    R9        2.06700   0.00042   0.00001   0.00091   0.00093   2.06793
   R10        2.06877   0.00004   0.00019  -0.00063  -0.00044   2.06833
   R11        2.05471  -0.00009  -0.00097   0.00545   0.00448   2.05920
    A1        1.88080  -0.00018   0.00236  -0.00902  -0.00665   1.87415
    A2        1.90654  -0.00020   0.00007   0.00028   0.00036   1.90690
    A3        1.87567   0.00044  -0.00026   0.00315   0.00289   1.87857
    A4        1.89424   0.00042  -0.00108   0.00733   0.00625   1.90050
    A5        1.87956  -0.00024   0.00119  -0.00593  -0.00474   1.87482
    A6        2.02238  -0.00025  -0.00195   0.00302   0.00107   2.02345
    A7        2.09606   0.00013  -0.00150   0.01203   0.01007   2.10612
    A8        2.08508   0.00001   0.00212  -0.01259  -0.01093   2.07415
    A9        2.09671   0.00012   0.00033   0.00551   0.00538   2.10209
[...]
           A10        113.49755 111.81226 109.67152 107.57214 105.95316
           A11        126.67111 124.92566 122.46975 119.89291 119.02597
           A12        118.79826 116.92424 114.42230 111.75110 109.59993
           A13        112.87354 113.17084 113.18176 113.07938 112.90457
           A14        108.28269 108.34746 108.36380 108.41535 108.35013
           A15        110.81982 110.26543 110.03636 109.90205 110.13088
           A16        108.30460 108.49669 108.64241 108.77491 108.84134
           A17        108.64159 108.70306 108.77762 108.82579 108.76778
           A18        107.76382 107.70072 107.68585 107.69835 107.70788
           D1           3.20412  -0.82379  -4.79773  -7.08250  29.73784
           D2        -177.67351 176.07962 169.56106 164.84840-162.29201
           D3        -116.34738-120.70787-125.02083-127.56178 -88.16955
           D4          62.77500  56.19554  49.33795  44.36912  79.80060
           D5         123.32122 118.98627 114.72305 112.29145 152.83065
           D6         -57.55641 -64.11032 -70.91816 -75.77765 -39.19920
           D7         175.63272 173.46602 175.91088-178.41946-168.60828
           D8           7.49996  22.49994  37.49995  52.49989  67.49991
           D9          -5.23171  -9.58244  -9.64320  -6.37134  -0.56373
           D10       -173.36446-160.54852-148.05413-135.45198-124.45554
           D11         70.56818  66.43139  62.09172  59.57935  59.97732
           D12       -169.53928-173.20351-177.34125-179.71618-179.39109
           D13        -51.54444 -55.56346 -59.83917 -62.24475 -61.81708
           D14        -97.00405 -83.21344 -74.55720 -67.59836 -62.11300
           D15         22.88849  37.15166  46.00983  53.10610  58.51858
           D16        140.88334 154.79171 163.51191 170.57754 176.09259
                           6         7         8         9        10
     Eigenvalues --  -247.71338-247.70843-247.70439-247.70322-247.72481
           R1           1.09030   1.09025   1.09022   1.09032   1.08991
           R2           1.09369   1.09387   1.09403   1.09362   1.09396
           R3           1.09216   1.09295   1.09355   1.09419   1.09435
           R4           1.50962   1.50635   1.50318   1.50323   1.51480
           R5           1.22701   1.22471   1.22280   1.22226   1.22986
           R6           1.41648   1.43358   1.44923   1.45167   1.38334
           R7           1.02299   1.02418   1.02456   1.02244   1.01444
           R8           1.47462   1.47926   1.48046   1.47374   1.45927
           R9           1.09679   1.09706   1.09678   1.09594   1.08887
           R10          1.09140   1.09137   1.09144   1.09165   1.09135
           R11          1.09215   1.09307   1.09322   1.09252   1.09633
           A1         109.12720 109.62157 110.13619 110.70950 109.60812
           A2         110.34043 110.63944 110.76797 110.39696 108.71799
           A3         110.01298 110.38917 110.52593 110.55373 109.19760
           A4         107.64024 107.24609 106.83685 106.69138 108.34643
           A5         106.87612 107.17065 107.99789 109.92307 112.56225
           A6         112.70267 111.64772 110.47073 108.46761 108.32773
           A7         122.35571 123.21817 123.88282 123.70738 122.32560
           A8         114.73368 113.88362 113.41626 113.12526 115.23711
           A9         121.77438 122.17299 122.49100 123.05406 122.19322
           A10        104.74607 103.94456 104.01844 107.03309 114.03574
           A11        115.15038 111.50565 109.62754 110.79223 118.40127
           A12        107.33723 105.56964 105.22223 108.57339 113.93899
           A13        112.81325 112.81803 112.94216 113.69701 108.07482
           A14        108.56207 108.55250 108.48068 108.32406 109.40948
           A15        109.75003 109.44654 109.08625 108.46360 112.00774
           A16        109.04882 109.25733 109.46782 109.54905 109.17246
           A17        108.67043 108.69982 108.76072 108.59929 108.74724
           A18        107.87680 107.95296 107.98592 108.06194 109.38008
           D1          29.77813  22.34348  11.93151  -5.80009 -25.65426
           D2        -162.21760-167.23791-173.22801 177.97087 159.90883
           D3         -88.57555 -96.98460-108.60830-128.32155-147.62359
           D4          79.42873  73.43401  66.23218  55.44940  37.93950
           D5         153.37768 145.85458 134.88156 115.37447  92.59479
           D6         -38.61804 -43.72680 -50.27796 -60.85457 -81.84212
           D7        -159.85497-149.22843-135.39191-114.29253   4.23511
           D8          82.49989  97.49993 112.49993 127.49991 142.50001
           D9           8.22643  21.30275  39.53012  69.45017-170.20993
           D10       -109.41871 -91.96889 -72.57804 -48.75740 -31.94503
           D11         59.35636  56.11036  53.58263  55.34450  46.77907
           D12       -179.66289 177.35083 175.11986 177.37045 165.54734
           D13        -61.97726 -65.04908 -67.48297 -65.57046 -72.99351
           D14        -56.82076 -56.14100 -57.73698 -61.92239-174.91765
           D15         64.15999  65.09947  63.80025  60.10356 -56.14938
           D16       -178.15438-177.30043-178.80258 177.16266  65.30977
                          11        12        13
     Eigenvalues --  -247.72829-247.72951-247.72951
           R1           1.09000   1.09036   1.09397
           R2           1.09347   1.09305   1.09305
           R3           1.09430   1.09396   1.09035
           R4           1.51500   1.51554   1.51556
           R5           1.23133   1.23262   1.23263
           R6           1.37498   1.36783   1.36784
           R7           1.01267   1.01057   1.01058
           R8           1.45515   1.45108   1.45110
           R9           1.08897   1.08935   1.08936
           R10          1.09126   1.09162   1.09552
           R11          1.09595   1.09552   1.09162
           A1         109.60131 109.49793 108.71935
           A2         108.43551 108.05426 108.05450
           A3         108.83949 108.40713 109.27215
           A4         108.51633 108.71906 109.49897
           A5         112.44343 112.78481 112.78045
           A6         108.92408 109.27066 108.40861
           A7         122.56148 122.36418 122.36524
           A8         115.04332 115.12396 115.12307
           A9         122.32858 122.50607 122.50585
           A10        116.26555 118.63841 118.63739
           A11        119.45379 121.01025 121.01649
           A12        116.33793 118.64894 118.64508
           A13        108.16909 107.85415 107.85058
           A14        109.24911 109.48612 112.13908
           A15        112.09992 112.14121 109.48986
           A16        109.36399 109.58515 108.47063
           A17        108.48396 108.46934 109.58338
           A18        109.43090 109.26502 109.26732
           D1         -27.50429 -34.07396 -83.49635
           D2         155.40196 146.78150  95.64462
           D3        -149.13518-155.49573 155.46689
           D4          33.77107  25.35973 -25.39215
           D5          90.54353  83.46603  34.04560
           D6         -86.55021 -95.67850-146.81343
           D7           9.62879   7.56696  -7.56170
           D8         157.50012 172.50000-172.50000
           D9        -167.47246-171.57624 171.57792
           D10        -19.60114  -6.64319   6.63963
           D11         45.48987  33.63071 -33.56111
           D12        164.45217 152.80981  85.80296
           D13        -74.07426 -85.73535-152.73811
           D14       -166.66128-161.43780 161.50173
           D15        -47.69898 -42.25869 -79.13420
           D16         73.77459  79.19614  42.32472
                          Input orientation:                          
 ---------------------------------------------------------------------
 Center     Atomic      Atomic             Coordinates (Angstroms)
 Number     Number       Type             X           Y           Z
 ---------------------------------------------------------------------
      1          6           0       -1.591774    0.586170   -1.070094
      2          1           0       -2.101944    0.552305   -0.102964
      3          1           0       -2.023658   -0.177985   -1.721475
      4          1           0       -1.758023    1.571886   -1.505518
      5          6           0       -0.102622    0.402132   -0.856819
      6          8           0        0.640849    1.336965   -0.552327
      7          7           0        0.351851   -0.879015   -1.008817
      8          1           0       -0.323159   -1.621001   -1.131675
      9          6           0        1.720219   -1.231149   -0.678256
     10          1           0        2.350766   -0.373225   -0.908634
     11          1           0        1.839052   -1.474123    0.383345
     12          1           0        2.031844   -2.086528   -1.280629
 ---------------------------------------------------------------------
                    Distance matrix (angstroms):
                    1          2          3          4          5
     1  C    0.000000
     2  H    1.093966   0.000000
     3  H    1.093048   1.777366   0.000000
     4  H    1.090353   1.767762   1.783045   0.000000
     5  C    1.515564   2.141995   2.185074   2.128260   0.000000
     6  O    2.411719   2.887999   3.280486   2.591978   1.232631
     7  N    2.434789   2.981670   2.577279   3.271879   1.367839
     8  H    2.546523   2.990917   2.306915   3.520387   2.053594
     9  C    3.798090   4.256830   4.026671   4.543076   2.454025
    10  H    4.060805   4.618695   4.453585   4.584963   2.573514
    11  H    4.257683   4.458067   4.585932   5.077886   2.971268
    12  H    4.507577   5.043663   4.503774   5.272349   3.305901
                    6          7          8          9         10
     6  O    0.000000
     7  N    2.280893   0.000000
     8  H    3.164573   1.010582   0.000000
     9  C    2.788568   1.451104   2.129077   0.000000
    10  H    2.444488   2.064346   2.959150   1.089356   0.000000
    11  H    3.195839   2.122272   2.644242   1.095515   1.772861
    12  H    3.766377   2.086707   2.405190   1.091621   1.781993
                   11         12
    11  H    0.000000
    12  H    1.783541   0.000000
 Stoichiometry    C3H7NO
 Framework group  C1[X(C3H7NO)]
 Deg. of freedom    30
 Full point group                 C1      NOp   1
 Largest Abelian subgroup         C1      NOp   1
 Largest concise Abelian subgroup C1      NOp   1
                         Standard orientation:                         
 ---------------------------------------------------------------------
 Center     Atomic      Atomic             Coordinates (Angstroms)
 Number     Number       Type             X           Y           Z
 ---------------------------------------------------------------------
      1          6           0        1.816162    0.551787    0.025618
      2          1           0        2.139906    0.639184    1.066921
      3          1           0        1.775627    1.551608   -0.414232
      4          1           0        2.551969   -0.050837   -0.507582
      5          6           0        0.482358   -0.166086   -0.024965
      6          8           0        0.393490   -1.395363   -0.006013
      7          7           0       -0.614603    0.649514   -0.074538
      8          1           0       -0.483804    1.644797    0.041995
      9          6           0       -1.955720    0.106487    0.036052
     10          1           0       -1.957247   -0.877335   -0.431696
     11          1           0       -2.271406   -0.004662    1.079192
     12          1           0       -2.657543    0.760421   -0.484957
 ---------------------------------------------------------------------
 Rotational constants (GHZ):      9.8894786      3.8819779      2.8926063

 **********************************************************************

            Population analysis using the SCF density.

 **********************************************************************

 Orbital symmetries:
       Occupied  (A) (A) (A) (A) (A) (A) (A) (A) (A) (A) (A) (A)
                 (A) (A) (A) (A) (A) (A) (A) (A)
       Virtual   (A) (A) (A) (A) (A) (A) (A) (A) (A) (A) (A) (A)
                 (A) (A) (A) (A) (A) (A) (A) (A) (A) (A) (A) (A)
                 (A) (A) (A) (A) (A) (A) (A) (A) (A) (A) (A) (A)
                 (A) (A) (A) (A) (A) (A) (A) (A) (A) (A) (A) (A)
                 (A) (A) (A) (A) (A) (A) (A) (A) (A) (A) (A) (A)
                 (A) (A) (A) (A) (A) (A) (A) (A) (A)
 The electronic state is 1-A.
 Alpha  occ. eigenvalues --  -20.51684 -15.58838 -11.35018 -11.25775 -11.23703
 Alpha  occ. eigenvalues --   -1.36431  -1.22242  -1.01497  -0.92759  -0.78341
 Alpha  occ. eigenvalues --   -0.68536  -0.64453  -0.62800  -0.58365  -0.57373
 Alpha  occ. eigenvalues --   -0.55257  -0.54214  -0.49692  -0.41403  -0.38441
 Alpha virt. eigenvalues --    0.19776   0.21472   0.26517   0.27935   0.30146
 Alpha virt. eigenvalues --    0.31744   0.33064   0.34827   0.37416   0.41882
 Alpha virt. eigenvalues --    0.49271   0.59315   0.72540   0.74394   0.75357
 Alpha virt. eigenvalues --    0.76428   0.80844   0.83468   0.88862   0.93782
 Alpha virt. eigenvalues --    0.96774   1.01330   1.03558   1.06680   1.10876
 Alpha virt. eigenvalues --    1.13909   1.14842   1.17999   1.18740   1.20341
 Alpha virt. eigenvalues --    1.21687   1.22497   1.29815   1.36463   1.41594
 Alpha virt. eigenvalues --    1.52403   1.59976   1.62973   1.67933   1.70891
 Alpha virt. eigenvalues --    1.81516   1.94335   2.04929   2.12230   2.12308
 Alpha virt. eigenvalues --    2.17116   2.19597   2.24267   2.29565   2.36202
 Alpha virt. eigenvalues --    2.42481   2.50749   2.53408   2.58694   2.63611
 Alpha virt. eigenvalues --    2.68162   2.72176   2.76790   2.88665   2.98170
 Alpha virt. eigenvalues --    3.01862   3.23059   3.34676   3.49668   4.34197
 Alpha virt. eigenvalues --    4.45696   4.58664   4.68327   4.89893
          Condensed to atoms (all electrons):
              1          2          3          4          5          6
     1  C    5.267030   0.376806   0.372981   0.382519   0.359308  -0.069926
     2  H    0.376806   0.490182  -0.023860  -0.018177  -0.026390   0.000091
     3  H    0.372981  -0.023860   0.531269  -0.022010  -0.036712   0.002296
     4  H    0.382519  -0.018177  -0.022010   0.468118  -0.030595   0.002540
     5  C    0.359308  -0.026390  -0.036712  -0.030595   4.165364   0.593423
     6  O   -0.069926   0.000091   0.002296   0.002540   0.593423   8.183701
     7  N   -0.112693   0.000346   0.005106   0.003456   0.276293  -0.097063
     8  H    0.000839  -0.000056   0.000620   0.000046  -0.019854   0.002303
     9  C    0.004477  -0.000165   0.000036  -0.000098  -0.029303   0.001415
    10  H    0.000356  -0.000011  -0.000030   0.000009  -0.003173   0.007578
    11  H   -0.000175   0.000040   0.000004  -0.000005  -0.001335   0.000779
    12  H   -0.000029  -0.000002  -0.000019   0.000003   0.003288   0.000323
              7          8          9         10         11         12
     1  C   -0.112693   0.000839   0.004477   0.000356  -0.000175  -0.000029
     2  H    0.000346  -0.000056  -0.000165  -0.000011   0.000040  -0.000002
     3  H    0.005106   0.000620   0.000036  -0.000030   0.000004  -0.000019
     4  H    0.003456   0.000046  -0.000098   0.000009  -0.000005   0.000003
     5  C    0.276293  -0.019854  -0.029303  -0.003173  -0.001335   0.003288
     6  O   -0.097063   0.002303   0.001415   0.007578   0.000779   0.000323
     7  N    7.312939   0.323890   0.196797  -0.036524  -0.048326  -0.040664
     8  H    0.323890   0.335155  -0.023543   0.002806   0.000174  -0.002830
     9  C    0.196797  -0.023543   4.930047   0.399487   0.403517   0.397122
    10  H   -0.036524   0.002806   0.399487   0.459043  -0.028973  -0.021743
    11  H   -0.048326   0.000174   0.403517  -0.028973   0.540969  -0.035249
    12  H   -0.040664  -0.002830   0.397122  -0.021743  -0.035249   0.533096
 Mulliken atomic charges:
              1
     1  C   -0.581493
     2  H    0.201196
     3  H    0.170320
     4  H    0.214192
     5  C    0.749686
     6  O   -0.627461
     7  N   -0.783556
     8  H    0.380450
     9  C   -0.279790
    10  H    0.221173
    11  H    0.168580
    12  H    0.166703
 Sum of Mulliken atomic charges =   0.00000
 Mulliken charges with hydrogens summed into heavy atoms:
              1
     1  C    0.004215
     5  C    0.749686
     6  O   -0.627461
     7  N   -0.403106
     9  C    0.276666
 Sum of Mulliken charges with hydrogens summed into heavy atoms =   0.00000
 Electronic spatial extent (au):  <R**2>=            457.9729
 Charge=              0.0000 electrons
 Dipole moment (field-independent basis, Debye):
    X=             -0.4658    Y=              4.0467    Z=              0.2963  Tot=              4.0842
 Quadrupole moment (field-independent basis, Debye-Ang):
   XX=            -26.6911   YY=            -33.5601   ZZ=            -31.1239
   XY=              1.3265   XZ=              0.0051   YZ=              0.4964
 Traceless Quadrupole moment (field-independent basis, Debye-Ang):
   XX=              3.7672   YY=             -3.1017   ZZ=             -0.6655
   XY=              1.3265   XZ=              0.0051   YZ=              0.4964
 Octapole moment (field-independent basis, Debye-Ang**2):
  XXX=             -1.6893  YYY=             11.3949  ZZZ=              1.5002  XYY=             -4.0107
  XXY=             -0.2679  XXZ=             -0.4557  XZZ=              1.0805  YZZ=             -1.4543
  YYZ=             -0.4665  XYZ=              0.2197
 Hexadecapole moment (field-independent basis, Debye-Ang**3):
 XXXX=           -389.9773 YYYY=           -144.1620 ZZZZ=            -41.8446 XXXY=             -5.2744
 XXXZ=              0.4917 YYYX=             -0.6233 YYYZ=             -0.0347 ZZZX=              0.4145
 ZZZY=              1.0146 XXYY=            -91.7703 XXZZ=            -71.8956 YYZZ=            -32.1294
 XXYZ=              0.6264 YYXZ=              0.4022 ZZXY=             -0.0278
 N-N= 1.798130263646D+02 E-N=-9.384406689214D+02  KE= 2.463444461557D+02
 1|1|UNPC-DESKTOP-R85NV05|Scan|RMP2-FC|6-31G(d)|C3H7N1O1|USER|20-Sep-20
 19|0||# opt=modredundant mp2/6-31g(d) geom=connectivity||Title Card Re
 quired||0,1|C,-1.5917743722,0.5861701023,-1.0700942849|H,-2.1019444942
 ,0.5523051519,-0.1029643104|H,-2.0236583485,-0.1779851096,-1.721475290
 6|H,-1.758023389,1.571886354,-1.5055176475|C,-0.1026215464,0.402131585
 9,-0.8568187359|O,0.6408494885,1.3369653921,-0.5523266904|N,0.35185062
 2,-0.8790146108,-1.0088171664|H,-0.3231591923,-1.6210010502,-1.1316749
 061|C,1.7202190883,-1.2311492782,-0.6782556732|H,2.3507664251,-0.37322
 54718,-0.9086337305|H,1.8390515687,-1.4741232566,0.3833450149|H,2.0318
 4369,-2.0865280491,-1.280629169||Version=IA32W-G09RevC.01|State=1-A|HF
 =-246.9993775,-246.9990111,-246.9975161,-246.9945305,-246.9904097,-246
 .9860198,-246.9813328,-246.9776344,-246.9771204,-246.9982022,-247.0019
 317,-247.0032899,-247.0032883|MP2=-247.7259089,-247.7258241,-247.72460
 66,-247.721783,-247.7178322,-247.7133805,-247.7084257,-247.7043897,-24
 7.7032168,-247.724809,-247.7282905,-247.7295087,-247.7295087|RMSD=5.84
 5e-009,6.992e-009,8.166e-009,2.874e-009,8.630e-009,3.896e-009,4.024e-0
 09,7.596e-009,9.286e-009,8.753e-009,7.030e-009,4.554e-009,8.801e-009|P
 G=C01 [X(C3H7N1O1)]||@


 ... IT IS NO ONE DREAME THAT
     CAN PLEASE THESE ALL ...

                -- BEN JONSON
 Job cpu time:  0 days  0 hours 31 minutes 22.0 seconds.
 File lengths (MBytes):  RWF=      9 Int=      0 D2E=      0 Chk=      2 Scr=      1
 Normal termination of Gaussian 09 at Fri Sep 20 07:06:30 2019.
