 Entering Gaussian System, Link 0=g09
 Input=nma.com
 Output=nma.log
 Initial command:
 /usr/local/shared/gaussian/amd64/09-E01/g09/l1.exe "/scratch/bm543/Gau-14712.inp" -scrdir="/scratch/bm543/"
 Entering Link 1 = /usr/local/shared/gaussian/amd64/09-E01/g09/l1.exe PID=     14714.
  
 Copyright (c) 1988,1990,1992,1993,1995,1998,2003,2009,2015,
            Gaussian, Inc.  All Rights Reserved.
  
 This is part of the Gaussian(R) 09 program.  It is based on
 the Gaussian(R) 03 system (copyright 2003, Gaussian, Inc.),
 the Gaussian(R) 98 system (copyright 1998, Gaussian, Inc.),
 the Gaussian(R) 94 system (copyright 1995, Gaussian, Inc.),
 the Gaussian 92(TM) system (copyright 1992, Gaussian, Inc.),
 the Gaussian 90(TM) system (copyright 1990, Gaussian, Inc.),
 the Gaussian 88(TM) system (copyright 1988, Gaussian, Inc.),
 the Gaussian 86(TM) system (copyright 1986, Carnegie Mellon
 University), and the Gaussian 82(TM) system (copyright 1983,
 Carnegie Mellon University). Gaussian is a federally registered
 trademark of Gaussian, Inc.
  
 This software contains proprietary and confidential information,
 including trade secrets, belonging to Gaussian, Inc.
  
 This software is provided under written license and may be
 used, copied, transmitted, or stored only in accord with that
 written license.
  
 The following legend is applicable only to US Government
 contracts under FAR:
  
                    RESTRICTED RIGHTS LEGEND
  
 Use, reproduction and disclosure by the US Government is
 subject to restrictions as set forth in subparagraphs (a)
 and (c) of the Commercial Computer Software - Restricted
 Rights clause in FAR 52.227-19.
  
 Gaussian, Inc.
 340 Quinnipiac St., Bldg. 40, Wallingford CT 06492
  
  
 ---------------------------------------------------------------
 Warning -- This program may not be used in any manner that
 competes with the business of Gaussian, Inc. or will provide
 assistance to any competitor of Gaussian, Inc.  The licensee
 of this program is prohibited from giving any competitor of
 Gaussian, Inc. access to this program.  By using this program,
 the user acknowledges that Gaussian, Inc. is engaged in the
 business of creating and licensing software in the field of
 computational chemistry and represents and warrants to the
 licensee that it is not a competitor of Gaussian, Inc. and that
 it will not use this program in any manner prohibited above.
 ---------------------------------------------------------------
  

 Cite this work as:
 Gaussian 09, Revision E.01,
 M. J. Frisch, G. W. Trucks, H. B. Schlegel, G. E. Scuseria, 
 M. A. Robb, J. R. Cheeseman, G. Scalmani, V. Barone, B. Mennucci, 
 G. A. Petersson, H. Nakatsuji, M. Caricato, X. Li, H. P. Hratchian, 
 A. F. Izmaylov, J. Bloino, G. Zheng, J. L. Sonnenberg, M. Hada, 
 M. Ehara, K. Toyota, R. Fukuda, J. Hasegawa, M. Ishida, T. Nakajima, 
 Y. Honda, O. Kitao, H. Nakai, T. Vreven, J. A. Montgomery, Jr., 
 J. E. Peralta, F. Ogliaro, M. Bearpark, J. J. Heyd, E. Brothers, 
 K. N. Kudin, V. N. Staroverov, T. Keith, R. Kobayashi, J. Normand, 
 K. Raghavachari, A. Rendell, J. C. Burant, S. S. Iyengar, J. Tomasi, 
 M. Cossi, N. Rega, J. M. Millam, M. Klene, J. E. Knox, J. B. Cross, 
 V. Bakken, C. Adamo, J. Jaramillo, R. Gomperts, R. E. Stratmann, 
 O. Yazyev, A. J. Austin, R. Cammi, C. Pomelli, J. W. Ochterski, 
 R. L. Martin, K. Morokuma, V. G. Zakrzewski, G. A. Voth, 
 P. Salvador, J. J. Dannenberg, S. Dapprich, A. D. Daniels, 
 O. Farkas, J. B. Foresman, J. V. Ortiz, J. Cioslowski, 
 and D. J. Fox, Gaussian, Inc., Wallingford CT, 2013.
 
 ******************************************
 Gaussian 09:  EM64L-G09RevE.01 30-Nov-2015
                13-Sep-2018 
 ******************************************
 %NProcShared=8
 Will use up to    8 processors via shared memory.
 -------------------------------
 # opt=modredundant MP2/6-31g(d)
 -------------------------------
 1/18=120,19=15,38=1/1,3;
 2/9=110,12=2,17=6,18=5,40=1/2;
 3/5=1,6=6,7=1,11=9,16=1,25=1,30=1,71=1/1,2,3;
 4//1;
 5/5=2,38=5/2;
 8/6=4,10=2/1;
 9/15=2,16=-3/6;
 10/5=1/2;
 6/7=2,8=2,9=2,10=2/1;
 7/12=2/1,2,3,16;
 1/18=20,19=15/3(2);
 2/9=110/2;
 99//99;
 2/9=110/2;
 3/5=1,6=6,7=1,11=9,16=1,25=1,30=1,71=1/1,2,3;
 4/5=5,16=3,69=1/1;
 5/5=2,38=5/2;
 8/6=4,10=2/1;
 9/15=2,16=-3/6;
 10/5=1/2;
 7/12=2/1,2,3,16;
 1/18=20,19=15/3(-8);
 2/9=110/2;
 6/7=2,8=2,9=2,10=2/1;
 99//99;
 -----
 Title
 -----
 Symbolic Z-matrix:
 Charge =  0 Multiplicity = 1
 C                    -0.71067  -1.35724  -0.00002 
 H                    -0.22497  -1.78239  -0.88352 
 H                    -1.76514  -1.62985  -0.00078 
 H                    -0.22635  -1.78225   0.88432 
 C                    -0.62381   0.15466  -0.00001 
 O                    -1.61974   0.88102   0.00001 
 N                     0.64105   0.67884   0. 
 H                     0.66527   1.69106  -0.00013 
 C                     1.88911  -0.06005   0. 
 H                     2.70865   0.65965   0.00137 
 H                     1.99199  -0.6912    0.88848 
 H                     1.99327  -0.68933  -0.88968 
 
 The following ModRedundant input section has been read:
 D       2       1       5       7 S  12 -15.00                                
 

 GradGradGradGradGradGradGradGradGradGradGradGradGradGradGradGradGradGrad
 Berny optimization.
 Initialization pass.
                           ----------------------------
                           !    Initial Parameters    !
                           ! (Angstroms and Degrees)  !
 --------------------------                            --------------------------
 ! Name  Definition              Value          Derivative Info.                !
 --------------------------------------------------------------------------------
 ! R1    R(1,2)                  1.0942         estimate D2E/DX2                !
 ! R2    R(1,3)                  1.0891         estimate D2E/DX2                !
 ! R3    R(1,4)                  1.0942         estimate D2E/DX2                !
 ! R4    R(1,5)                  1.5144         estimate D2E/DX2                !
 ! R5    R(5,6)                  1.2327         estimate D2E/DX2                !
 ! R6    R(5,7)                  1.3692         estimate D2E/DX2                !
 ! R7    R(7,8)                  1.0125         estimate D2E/DX2                !
 ! R8    R(7,9)                  1.4504         estimate D2E/DX2                !
 ! R9    R(9,10)                 1.0907         estimate D2E/DX2                !
 ! R10   R(9,11)                 1.0947         estimate D2E/DX2                !
 ! R11   R(9,12)                 1.0947         estimate D2E/DX2                !
 ! A1    A(2,1,3)              109.3869         estimate D2E/DX2                !
 ! A2    A(2,1,4)              107.7696         estimate D2E/DX2                !
 ! A3    A(2,1,5)              111.2514         estimate D2E/DX2                !
 ! A4    A(3,1,4)              109.383          estimate D2E/DX2                !
 ! A5    A(3,1,5)              107.7833         estimate D2E/DX2                !
 ! A6    A(4,1,5)              111.2471         estimate D2E/DX2                !
 ! A7    A(1,5,6)              122.8163         estimate D2E/DX2                !
 ! A8    A(1,5,7)              115.798          estimate D2E/DX2                !
 ! A9    A(6,5,7)              121.3857         estimate D2E/DX2                !
 ! A10   A(5,7,8)              113.8807         estimate D2E/DX2                !
 ! A11   A(5,7,9)              126.8632         estimate D2E/DX2                !
 ! A12   A(8,7,9)              119.2562         estimate D2E/DX2                !
 ! A13   A(7,9,10)             108.0843         estimate D2E/DX2                !
 ! A14   A(7,9,11)             111.9994         estimate D2E/DX2                !
 ! A15   A(7,9,12)             112.0074         estimate D2E/DX2                !
 ! A16   A(10,9,11)            107.9875         estimate D2E/DX2                !
 ! A17   A(10,9,12)            107.9892         estimate D2E/DX2                !
 ! A18   A(11,9,12)            108.6177         estimate D2E/DX2                !
 ! D1    D(2,1,5,6)            119.9618         estimate D2E/DX2                !
 ! D2    D(2,1,5,7)            -60.0393         Scan                            !
 ! D3    D(3,1,5,6)              0.0427         estimate D2E/DX2                !
 ! D4    D(3,1,5,7)           -179.9584         estimate D2E/DX2                !
 ! D5    D(4,1,5,6)           -119.8689         estimate D2E/DX2                !
 ! D6    D(4,1,5,7)             60.1299         estimate D2E/DX2                !
 ! D7    D(1,5,7,8)            179.9916         estimate D2E/DX2                !
 ! D8    D(1,5,7,9)              0.0001         estimate D2E/DX2                !
 ! D9    D(6,5,7,8)             -0.0096         estimate D2E/DX2                !
 ! D10   D(6,5,7,9)            179.999          estimate D2E/DX2                !
 ! D11   D(5,7,9,10)          -179.9248         estimate D2E/DX2                !
 ! D12   D(5,7,9,11)           -61.0893         estimate D2E/DX2                !
 ! D13   D(5,7,9,12)            61.2327         estimate D2E/DX2                !
 ! D14   D(8,7,9,10)             0.0841         estimate D2E/DX2                !
 ! D15   D(8,7,9,11)           118.9197         estimate D2E/DX2                !
 ! D16   D(8,7,9,12)          -118.7583         estimate D2E/DX2                !
 --------------------------------------------------------------------------------
 Trust Radius=3.00D-01 FncErr=1.00D-07 GrdErr=1.00D-07
 Number of optimizations in scan=  13
 Number of steps in this run=     55 maximum allowed number of steps=    100.
 GradGradGradGradGradGradGradGradGradGradGradGradGradGradGradGradGradGrad

                          Input orientation:                          
 ---------------------------------------------------------------------
 Center     Atomic      Atomic             Coordinates (Angstroms)
 Number     Number       Type             X           Y           Z
 ---------------------------------------------------------------------
      1          6           0       -0.710670   -1.357240   -0.000020
      2          1           0       -0.224970   -1.782390   -0.883520
      3          1           0       -1.765140   -1.629850   -0.000780
      4          1           0       -0.226350   -1.782250    0.884320
      5          6           0       -0.623810    0.154660   -0.000010
      6          8           0       -1.619740    0.881020    0.000010
      7          7           0        0.641050    0.678840    0.000000
      8          1           0        0.665270    1.691060   -0.000130
      9          6           0        1.889110   -0.060050    0.000000
     10          1           0        2.708650    0.659650    0.001370
     11          1           0        1.991990   -0.691200    0.888480
     12          1           0        1.993270   -0.689330   -0.889680
 ---------------------------------------------------------------------
                    Distance matrix (angstroms):
                    1          2          3          4          5
     1  C    0.000000
     2  H    1.094180   0.000000
     3  H    1.089139   1.781747   0.000000
     4  H    1.094192   1.767841   1.781713   0.000000
     5  C    1.514393   2.166062   2.118280   2.166018   0.000000
     6  O    2.415826   3.133650   2.515077   3.133137   1.232670
     7  N    2.443925   2.754678   3.334636   2.755244   1.369173
     8  H    3.344450   3.692934   4.115257   3.693389   2.005555
     9  C    2.905436   2.866426   3.977162   2.867606   2.522076
    10  H    3.969836   3.918254   5.025596   3.918763   3.370505
    11  H    2.921885   3.040656   3.973396   2.472133   2.889170
    12  H    2.923849   2.472935   3.974968   3.044382   2.890145
                    6          7          8          9         10
     6  O    0.000000
     7  N    2.269812   0.000000
     8  H    2.424342   1.012510   0.000000
     9  C    3.632856   1.450383   2.136392   0.000000
    10  H    4.334047   2.067690   2.288932   1.090695   0.000000
    11  H    4.038050   2.119303   2.867922   1.094683   1.767869
    12  H    4.038736   2.119415   2.867253   1.094702   1.767904
                   11         12
    11  H    0.000000
    12  H    1.778161   0.000000
 Stoichiometry    C3H7NO
 Framework group  C1[X(C3H7NO)]
 Deg. of freedom    30
 Full point group                 C1      NOp   1
 Largest Abelian subgroup         C1      NOp   1
 Largest concise Abelian subgroup C1      NOp   1
                         Standard orientation:                         
 ---------------------------------------------------------------------
 Center     Atomic      Atomic             Coordinates (Angstroms)
 Number     Number       Type             X           Y           Z
 ---------------------------------------------------------------------
      1          6           0       -0.710668    1.357239    0.000019
      2          1           0       -0.224968    1.782389    0.883519
      3          1           0       -1.765138    1.629849    0.000779
      4          1           0       -0.226348    1.782249   -0.884321
      5          6           0       -0.623808   -0.154661    0.000009
      6          8           0       -1.619739   -0.881021   -0.000011
      7          7           0        0.641051   -0.678842   -0.000001
      8          1           0        0.665271   -1.691062    0.000129
      9          6           0        1.889112    0.060048   -0.000001
     10          1           0        2.708651   -0.659652   -0.001371
     11          1           0        1.991992    0.691198   -0.888481
     12          1           0        1.993272    0.689328    0.889679
 ---------------------------------------------------------------------
 Rotational constants (GHZ):      8.8036882      4.0967769      2.8973302
 Standard basis: 6-31G(d) (6D, 7F)
 There are    89 symmetry adapted cartesian basis functions of A   symmetry.
 There are    89 symmetry adapted basis functions of A   symmetry.
    89 basis functions,   168 primitive gaussians,    89 cartesian basis functions
    20 alpha electrons       20 beta electrons
       nuclear repulsion energy       179.6864625742 Hartrees.
 NAtoms=   12 NActive=   12 NUniq=   12 SFac= 1.00D+00 NAtFMM=   60 NAOKFM=F Big=F
 Integral buffers will be    131072 words long.
 Raffenetti 1 integral format.
 Two-electron integral symmetry is turned on.
 One-electron integrals computed using PRISM.
 NBasis=    89 RedAO= T EigKep=  3.73D-03  NBF=    89
 NBsUse=    89 1.00D-06 EigRej= -1.00D+00 NBFU=    89
 ExpMin= 1.61D-01 ExpMax= 5.48D+03 ExpMxC= 8.25D+02 IAcc=1 IRadAn=         1 AccDes= 0.00D+00
 Harris functional with IExCor=  205 and IRadAn=       1 diagonalized for initial guess.
 HarFok:  IExCor=  205 AccDes= 0.00D+00 IRadAn=         1 IDoV= 1 UseB2=F ITyADJ=14
 ICtDFT=  3500011 ScaDFX=  1.000000  1.000000  1.000000  1.000000
 FoFCou: FMM=F IPFlag=           0 FMFlag=      100000 FMFlg1=           0
         NFxFlg=           0 DoJE=T BraDBF=F KetDBF=T FulRan=T
         wScrn=  0.000000 ICntrl=     500 IOpCl=  0 I1Cent=   200000004 NGrid=           0
         NMat0=    1 NMatS0=      1 NMatT0=    0 NMatD0=    1 NMtDS0=    0 NMtDT0=    0
 Petite list used in FoFCou.
 Keep R1 ints in memory in canonical form, NReq=8933623.
 Requested convergence on RMS density matrix=1.00D-08 within 128 cycles.
 Requested convergence on MAX density matrix=1.00D-06.
 Requested convergence on             energy=1.00D-06.
 No special actions if energy rises.
 SCF Done:  E(RHF) =  -246.999372734     A.U. after   13 cycles
            NFock= 13  Conv=0.88D-08     -V/T= 2.0027
 ExpMin= 1.61D-01 ExpMax= 5.48D+03 ExpMxC= 8.25D+02 IAcc=3 IRadAn=         5 AccDes= 0.00D+00
 HarFok:  IExCor=  205 AccDes= 0.00D+00 IRadAn=         5 IDoV=-2 UseB2=F ITyADJ=14
 ICtDFT= 12500011 ScaDFX=  1.000000  1.000000  1.000000  1.000000
 Range of M.O.s used for correlation:     6    89
 NBasis=    89 NAE=    20 NBE=    20 NFC=     5 NFV=     0
 NROrb=     84 NOA=    15 NOB=    15 NVA=    69 NVB=    69
 Fully direct method using O(ONN) memory.
 JobTyp=1 Pass  1:  I=   6 to  16 NPSUse=  2 ParTrn=F ParDer=T DoDerP=T.
 JobTyp=1 Pass  2:  I=  17 to  20 NPSUse=  2 ParTrn=F ParDer=T DoDerP=T.
 Spin components of T(2) and E(2):
     alpha-alpha T2 =       0.2925724840D-01 E2=     -0.9293202927D-01
     alpha-beta  T2 =       0.1692526988D+00 E2=     -0.5405540946D+00
     beta-beta   T2 =       0.2925724840D-01 E2=     -0.9293202927D-01
 ANorm=    0.1108046567D+01
 E2 =    -0.7264181532D+00 EUMP2 =    -0.24772579088761D+03
          IDoAtm=111111111111
          Differentiating once with respect to electric field.
                with respect to dipole field.
          Differentiating once with respect to nuclear coordinates.
 Keep R1 ints in memory in canonical form, NReq=8909730.
          There are     1 degrees of freedom in the 1st order CPHF.  IDoFFX=0 NUNeed=     1.
 LinEq1:  Iter=  0 NonCon=     1 RMS=6.59D-03 Max=1.26D-01 NDo=     1
 AX will form     1 AO Fock derivatives at one time.
 LinEq1:  Iter=  1 NonCon=     1 RMS=2.38D-03 Max=3.59D-02 NDo=     1
 LinEq1:  Iter=  2 NonCon=     1 RMS=7.54D-04 Max=9.84D-03 NDo=     1
 LinEq1:  Iter=  3 NonCon=     1 RMS=3.36D-04 Max=5.40D-03 NDo=     1
 LinEq1:  Iter=  4 NonCon=     1 RMS=6.47D-05 Max=5.83D-04 NDo=     1
 LinEq1:  Iter=  5 NonCon=     1 RMS=2.48D-05 Max=3.30D-04 NDo=     1
 LinEq1:  Iter=  6 NonCon=     1 RMS=6.57D-06 Max=8.65D-05 NDo=     1
 LinEq1:  Iter=  7 NonCon=     1 RMS=1.60D-06 Max=2.00D-05 NDo=     1
 LinEq1:  Iter=  8 NonCon=     1 RMS=4.37D-07 Max=5.60D-06 NDo=     1
 LinEq1:  Iter=  9 NonCon=     1 RMS=1.24D-07 Max=9.91D-07 NDo=     1
 LinEq1:  Iter= 10 NonCon=     1 RMS=3.16D-08 Max=2.70D-07 NDo=     1
 LinEq1:  Iter= 11 NonCon=     1 RMS=6.03D-09 Max=5.01D-08 NDo=     1
 LinEq1:  Iter= 12 NonCon=     1 RMS=1.49D-09 Max=1.33D-08 NDo=     1
 LinEq1:  Iter= 13 NonCon=     1 RMS=3.85D-10 Max=2.23D-09 NDo=     1
 LinEq1:  Iter= 14 NonCon=     0 RMS=5.85D-11 Max=4.02D-10 NDo=     1
 Linear equations converged to 1.000D-10 1.000D-09 after    14 iterations.
 End of Minotr F.D. properties file   721 does not exist.
 End of Minotr F.D. properties file   722 does not exist.
 End of Minotr F.D. properties file   788 does not exist.

 **********************************************************************

            Population analysis using the SCF density.

 **********************************************************************

 Orbital symmetries:
       Occupied  (A) (A) (A) (A) (A) (A) (A) (A) (A) (A) (A) (A)
                 (A) (A) (A) (A) (A) (A) (A) (A)
       Virtual   (A) (A) (A) (A) (A) (A) (A) (A) (A) (A) (A) (A)
                 (A) (A) (A) (A) (A) (A) (A) (A) (A) (A) (A) (A)
                 (A) (A) (A) (A) (A) (A) (A) (A) (A) (A) (A) (A)
                 (A) (A) (A) (A) (A) (A) (A) (A) (A) (A) (A) (A)
                 (A) (A) (A) (A) (A) (A) (A) (A) (A) (A) (A) (A)
                 (A) (A) (A) (A) (A) (A) (A) (A) (A)
 The electronic state is 1-A.
 Alpha  occ. eigenvalues --  -20.51496 -15.58584 -11.34961 -11.27808 -11.23560
 Alpha  occ. eigenvalues --   -1.36199  -1.22379  -1.00497  -0.95429  -0.77935
 Alpha  occ. eigenvalues --   -0.67055  -0.66181  -0.63901  -0.58059  -0.57315
 Alpha  occ. eigenvalues --   -0.55877  -0.55329  -0.50690  -0.41138  -0.38090
 Alpha virt. eigenvalues --    0.20089   0.21328   0.23658   0.27016   0.29337
 Alpha virt. eigenvalues --    0.30926   0.32613   0.36457   0.39746   0.41922
 Alpha virt. eigenvalues --    0.49234   0.57952   0.68375   0.72631   0.73222
 Alpha virt. eigenvalues --    0.78550   0.82823   0.84891   0.86494   0.94794
 Alpha virt. eigenvalues --    0.98695   1.04082   1.06155   1.08283   1.10283
 Alpha virt. eigenvalues --    1.12687   1.14877   1.16284   1.17120   1.19510
 Alpha virt. eigenvalues --    1.22481   1.25236   1.30904   1.34334   1.37266
 Alpha virt. eigenvalues --    1.59412   1.62857   1.63198   1.67663   1.75937
 Alpha virt. eigenvalues --    1.82254   1.89240   2.05462   2.07002   2.11620
 Alpha virt. eigenvalues --    2.19991   2.22045   2.26587   2.30373   2.38895
 Alpha virt. eigenvalues --    2.39502   2.44222   2.45749   2.60132   2.60238
 Alpha virt. eigenvalues --    2.64370   2.79356   2.85601   2.87778   2.97259
 Alpha virt. eigenvalues --    2.97559   3.25227   3.35960   3.48256   4.31989
 Alpha virt. eigenvalues --    4.41447   4.60829   4.71554   4.90703
          Condensed to atoms (all electrons):
               1          2          3          4          5          6
     1  C    5.311142   0.372620   0.382104   0.372631   0.352714  -0.074556
     2  H    0.372620   0.509212  -0.017990  -0.026120  -0.027886   0.001238
     3  H    0.382104  -0.017990   0.457596  -0.017982  -0.032078   0.004451
     4  H    0.372631  -0.026120  -0.017982   0.509155  -0.027884   0.001233
     5  C    0.352714  -0.027886  -0.032078  -0.027884   4.117040   0.612920
     6  O   -0.074556   0.001238   0.004451   0.001233   0.612920   8.166561
     7  N   -0.118997   0.001973   0.004150   0.001973   0.291425  -0.096821
     8  H    0.005425  -0.000171  -0.000123  -0.000171  -0.013388   0.007314
     9  C   -0.006768  -0.001516   0.000075  -0.001520  -0.020908   0.002163
    10  H    0.000070   0.000044   0.000001   0.000044   0.001477  -0.000060
    11  H   -0.000608  -0.000334  -0.000003   0.001082  -0.001386   0.000025
    12  H   -0.000605   0.001079  -0.000003  -0.000328  -0.001380   0.000025
               7          8          9         10         11         12
     1  C   -0.118997   0.005425  -0.006768   0.000070  -0.000608  -0.000605
     2  H    0.001973  -0.000171  -0.001516   0.000044  -0.000334   0.001079
     3  H    0.004150  -0.000123   0.000075   0.000001  -0.000003  -0.000003
     4  H    0.001973  -0.000171  -0.001520   0.000044   0.001082  -0.000328
     5  C    0.291425  -0.013388  -0.020908   0.001477  -0.001386  -0.001380
     6  O   -0.096821   0.007314   0.002163  -0.000060   0.000025   0.000025
     7  N    7.314924   0.312033   0.201158  -0.031616  -0.048242  -0.048271
     8  H    0.312033   0.317402  -0.021876  -0.005078   0.001793   0.001789
     9  C    0.201158  -0.021876   4.920542   0.400810   0.400764   0.400754
    10  H   -0.031616  -0.005078   0.400810   0.497988  -0.025415  -0.025452
    11  H   -0.048242   0.001793   0.400764  -0.025415   0.537917  -0.040564
    12  H   -0.048271   0.001789   0.400754  -0.025452  -0.040564   0.538011
 Mulliken charges:
               1
     1  C   -0.595169
     2  H    0.187851
     3  H    0.219800
     4  H    0.187887
     5  C    0.749334
     6  O   -0.624491
     7  N   -0.783688
     8  H    0.395051
     9  C   -0.273678
    10  H    0.187187
    11  H    0.174970
    12  H    0.174945
 Sum of Mulliken charges =  -0.00000
 Mulliken charges with hydrogens summed into heavy atoms:
               1
     1  C    0.000370
     5  C    0.749334
     6  O   -0.624491
     7  N   -0.388637
     9  C    0.263425
 Electronic spatial extent (au):  <R**2>=            451.1388
 Charge=             -0.0000 electrons
 Dipole moment (field-independent basis, Debye):
    X=              4.0160    Y=              1.8134    Z=             -0.0001  Tot=              4.4064
 Quadrupole moment (field-independent basis, Debye-Ang):
   XX=            -34.0068   YY=            -29.4312   ZZ=            -31.1701
   XY=             -5.0965   XZ=             -0.0007   YZ=             -0.0008
 Traceless Quadrupole moment (field-independent basis, Debye-Ang):
   XX=             -2.4708   YY=              2.1049   ZZ=              0.3659
   XY=             -5.0965   XZ=             -0.0007   YZ=             -0.0008
 Octapole moment (field-independent basis, Debye-Ang**2):
  XXX=             13.3467  YYY=             -8.2282  ZZZ=             -0.0001  XYY=              4.5512
  XXY=              4.5405  XXZ=             -0.0006  XZZ=             -1.1806  YZZ=              0.4589
  YYZ=             -0.0013  XYZ=              0.0006
 Hexadecapole moment (field-independent basis, Debye-Ang**3):
 XXXX=           -351.5325 YYYY=           -174.3749 ZZZZ=            -41.9401 XXXY=            -15.5152
 XXXZ=             -0.0119 YYYX=             -6.7382 YYYZ=             -0.0038 ZZZX=              0.0047
 ZZZY=             -0.0033 XXYY=            -89.2077 XXZZ=            -66.3142 YYZZ=            -36.6267
 XXYZ=              0.0068 YYXZ=             -0.0028 ZZXY=              2.9504
 N-N= 1.796864625742D+02 E-N=-9.380616895228D+02  KE= 2.463396939644D+02
 Calling FoFJK, ICntrl=  10002127 FMM=F ISym2X=0 I1Cent= 0 IOpClX= 0 NMat=1 NMatS=1 NMatT=0.
 ***** Axes restored to original set *****
 -------------------------------------------------------------------
 Center     Atomic                   Forces (Hartrees/Bohr)
 Number     Number              X              Y              Z
 -------------------------------------------------------------------
      1        6           0.000008526   -0.000005213    0.000006979
      2        1          -0.000001493    0.000000660    0.000000502
      3        1          -0.000004423   -0.000000979    0.000000038
      4        1          -0.000003320    0.000002728   -0.000004259
      5        6           0.000000659   -0.000000101   -0.000007236
      6        8          -0.000001896    0.000001283   -0.000000515
      7        7           0.000002198    0.000001668    0.000008776
      8        1           0.000000429   -0.000001979    0.000000300
      9        6           0.000002275    0.000005050   -0.000004685
     10        1          -0.000002435   -0.000003144    0.000000246
     11        1          -0.000000184    0.000000447    0.000000382
     12        1          -0.000000338   -0.000000420   -0.000000529
 -------------------------------------------------------------------
 Cartesian Forces:  Max     0.000008776 RMS     0.000003437

 GradGradGradGradGradGradGradGradGradGradGradGradGradGradGradGradGradGrad
 Berny optimization.
 FormGI is forming the generalized inverse of G from B-inverse, IUseBI=4.
 Internal  Forces:  Max     0.000005971 RMS     0.000001816
 Search for a local minimum.
 Step number   1 out of a maximum of   55 on scan point     1 out of    13
 All quantities printed in internal units (Hartrees-Bohrs-Radians)
 Mixed Optimization -- En-DIIS/RFO-DIIS
 Second derivative matrix not updated -- first step.
 ITU=  0
     Eigenvalues ---    0.00938   0.01025   0.01431   0.02100   0.04562
     Eigenvalues ---    0.07179   0.07392   0.07687   0.16000   0.16000
     Eigenvalues ---    0.16000   0.16000   0.16000   0.16000   0.16000
     Eigenvalues ---    0.22000   0.25000   0.25000   0.30913   0.34275
     Eigenvalues ---    0.34277   0.34333   0.34334   0.34732   0.34912
     Eigenvalues ---    0.38195   0.45555   0.51136   0.899831000.00000
     Eigenvalues --- 1000.000001000.000001000.000001000.000001000.00000
     Eigenvalues --- 1000.000001000.000001000.000001000.000001000.00000
     Eigenvalues --- 1000.000001000.000001000.000001000.000001000.00000
 RFO step:  Lambda= 0.00000000D+00 EMin= 9.38029700D-03
 Linear search not attempted -- first point.
 Iteration  1 RMS(Cart)=  0.00009037 RMS(Int)=  0.00000000
 Iteration  2 RMS(Cart)=  0.00000001 RMS(Int)=  0.00000000
 Iteration  1 RMS(Cart)=  0.00000000 RMS(Int)=  0.00000000
 Variable       Old X    -DE/DX   Delta X   Delta X   Delta X     New X
                                 (Linear)    (Quad)   (Total)
    R1        2.06770  -0.00000   0.00000  -0.00000  -0.00000   2.06770
    R2        2.05817   0.00000   0.00000   0.00001   0.00001   2.05819
    R3        2.06772  -0.00001   0.00000  -0.00002  -0.00002   2.06771
    R4        2.86179   0.00000   0.00000   0.00001   0.00001   2.86180
    R5        2.32941   0.00000   0.00000   0.00000   0.00000   2.32941
    R6        2.58736   0.00000   0.00000   0.00000   0.00000   2.58737
    R7        1.91337  -0.00000   0.00000  -0.00000  -0.00000   1.91336
    R8        2.74083  -0.00000   0.00000  -0.00000  -0.00000   2.74082
    R9        2.06112  -0.00000   0.00000  -0.00001  -0.00001   2.06110
   R10        2.06865   0.00000   0.00000   0.00000   0.00000   2.06865
   R11        2.06869   0.00000   0.00000   0.00000   0.00000   2.06869
    A1        1.90916  -0.00000   0.00000   0.00000   0.00000   1.90916
    A2        1.88093   0.00000   0.00000   0.00001   0.00001   1.88094
    A3        1.94170   0.00000   0.00000   0.00000   0.00000   1.94171
    A4        1.90909  -0.00000   0.00000  -0.00000  -0.00000   1.90909
    A5        1.88117  -0.00000   0.00000  -0.00000  -0.00000   1.88117
    A6        1.94163  -0.00000   0.00000  -0.00000  -0.00000   1.94162
    A7        2.14355  -0.00000   0.00000  -0.00000  -0.00000   2.14354
    A8        2.02106   0.00000   0.00000   0.00001   0.00001   2.02106
    A9        2.11858  -0.00000   0.00000  -0.00000  -0.00000   2.11858
   A10        1.98759   0.00000   0.00000   0.00000   0.00000   1.98759
   A11        2.21418   0.00000   0.00000   0.00000   0.00000   2.21418
   A12        2.08141  -0.00000   0.00000  -0.00000  -0.00000   2.08141
   A13        1.88643   0.00000   0.00000   0.00001   0.00001   1.88644
   A14        1.95476  -0.00000   0.00000  -0.00001  -0.00001   1.95475
   A15        1.95490  -0.00000   0.00000  -0.00000  -0.00000   1.95489
   A16        1.88474  -0.00000   0.00000  -0.00000  -0.00000   1.88473
   A17        1.88477  -0.00000   0.00000   0.00000   0.00000   1.88477
   A18        1.89574   0.00000   0.00000   0.00000   0.00000   1.89574
    D1        2.09373   0.00000   0.00000   0.00010   0.00010   2.09383
    D2       -1.04788  -0.00000   0.00000   0.00000   0.00000  -1.04788
    D3        0.00075   0.00000   0.00000   0.00010   0.00010   0.00084
    D4       -3.14087  -0.00000   0.00000  -0.00000  -0.00000  -3.14087
    D5       -2.09211   0.00000   0.00000   0.00011   0.00011  -2.09200
    D6        1.04946  -0.00000   0.00000   0.00001   0.00001   1.04947
    D7        3.14145   0.00000   0.00000   0.00010   0.00010   3.14155
    D8        0.00000   0.00000   0.00000   0.00023   0.00023   0.00023
    D9       -0.00017   0.00000   0.00000   0.00000   0.00000  -0.00016
   D10        3.14157   0.00000   0.00000   0.00013   0.00013  -3.14148
   D11       -3.14028  -0.00000   0.00000  -0.00007  -0.00007  -3.14036
   D12       -1.06621  -0.00000   0.00000  -0.00008  -0.00008  -1.06629
   D13        1.06871  -0.00000   0.00000  -0.00008  -0.00008   1.06863
   D14        0.00147   0.00000   0.00000   0.00006   0.00006   0.00152
   D15        2.07554   0.00000   0.00000   0.00005   0.00005   2.07559
   D16       -2.07272   0.00000   0.00000   0.00005   0.00005  -2.07267
         Item               Value     Threshold  Converged?
 Maximum Force            0.000006     0.000450     YES
 RMS     Force            0.000002     0.000300     YES
 Maximum Displacement     0.000201     0.001800     YES
 RMS     Displacement     0.000090     0.001200     YES
 Predicted change in Energy=-1.206451D-09
 Optimization completed.
    -- Stationary point found.
                           ----------------------------
                           !   Optimized Parameters   !
                           ! (Angstroms and Degrees)  !
 --------------------------                            --------------------------
 ! Name  Definition              Value          Derivative Info.                !
 --------------------------------------------------------------------------------
 ! R1    R(1,2)                  1.0942         -DE/DX =    0.0                 !
 ! R2    R(1,3)                  1.0891         -DE/DX =    0.0                 !
 ! R3    R(1,4)                  1.0942         -DE/DX =    0.0                 !
 ! R4    R(1,5)                  1.5144         -DE/DX =    0.0                 !
 ! R5    R(5,6)                  1.2327         -DE/DX =    0.0                 !
 ! R6    R(5,7)                  1.3692         -DE/DX =    0.0                 !
 ! R7    R(7,8)                  1.0125         -DE/DX =    0.0                 !
 ! R8    R(7,9)                  1.4504         -DE/DX =    0.0                 !
 ! R9    R(9,10)                 1.0907         -DE/DX =    0.0                 !
 ! R10   R(9,11)                 1.0947         -DE/DX =    0.0                 !
 ! R11   R(9,12)                 1.0947         -DE/DX =    0.0                 !
 ! A1    A(2,1,3)              109.3869         -DE/DX =    0.0                 !
 ! A2    A(2,1,4)              107.7696         -DE/DX =    0.0                 !
 ! A3    A(2,1,5)              111.2514         -DE/DX =    0.0                 !
 ! A4    A(3,1,4)              109.383          -DE/DX =    0.0                 !
 ! A5    A(3,1,5)              107.7833         -DE/DX =    0.0                 !
 ! A6    A(4,1,5)              111.2471         -DE/DX =    0.0                 !
 ! A7    A(1,5,6)              122.8163         -DE/DX =    0.0                 !
 ! A8    A(1,5,7)              115.798          -DE/DX =    0.0                 !
 ! A9    A(6,5,7)              121.3857         -DE/DX =    0.0                 !
 ! A10   A(5,7,8)              113.8807         -DE/DX =    0.0                 !
 ! A11   A(5,7,9)              126.8632         -DE/DX =    0.0                 !
 ! A12   A(8,7,9)              119.2562         -DE/DX =    0.0                 !
 ! A13   A(7,9,10)             108.0843         -DE/DX =    0.0                 !
 ! A14   A(7,9,11)             111.9994         -DE/DX =    0.0                 !
 ! A15   A(7,9,12)             112.0074         -DE/DX =    0.0                 !
 ! A16   A(10,9,11)            107.9875         -DE/DX =    0.0                 !
 ! A17   A(10,9,12)            107.9892         -DE/DX =    0.0                 !
 ! A18   A(11,9,12)            108.6177         -DE/DX =    0.0                 !
 ! D1    D(2,1,5,6)            119.9618         -DE/DX =    0.0                 !
 ! D2    D(2,1,5,7)            -60.0393         -DE/DX =    0.0                 !
 ! D3    D(3,1,5,6)              0.0427         -DE/DX =    0.0                 !
 ! D4    D(3,1,5,7)           -179.9584         -DE/DX =    0.0                 !
 ! D5    D(4,1,5,6)           -119.8689         -DE/DX =    0.0                 !
 ! D6    D(4,1,5,7)             60.1299         -DE/DX =    0.0                 !
 ! D7    D(1,5,7,8)            179.9916         -DE/DX =    0.0                 !
 ! D8    D(1,5,7,9)              0.0001         -DE/DX =    0.0                 !
 ! D9    D(6,5,7,8)             -0.0096         -DE/DX =    0.0                 !
 ! D10   D(6,5,7,9)           -180.001          -DE/DX =    0.0                 !
 ! D11   D(5,7,9,10)          -179.9248         -DE/DX =    0.0                 !
 ! D12   D(5,7,9,11)           -61.0893         -DE/DX =    0.0                 !
 ! D13   D(5,7,9,12)            61.2327         -DE/DX =    0.0                 !
 ! D14   D(8,7,9,10)             0.0841         -DE/DX =    0.0                 !
 ! D15   D(8,7,9,11)           118.9197         -DE/DX =    0.0                 !
 ! D16   D(8,7,9,12)          -118.7583         -DE/DX =    0.0                 !
 --------------------------------------------------------------------------------
 Iteration  1 RMS(Cart)=  0.02293549 RMS(Int)=  0.02942040
 Iteration  2 RMS(Cart)=  0.00738594 RMS(Int)=  0.02872307
 Iteration  3 RMS(Cart)=  0.00029796 RMS(Int)=  0.02872229
 Iteration  4 RMS(Cart)=  0.00001576 RMS(Int)=  0.02872229
 Iteration  5 RMS(Cart)=  0.00000086 RMS(Int)=  0.02872229
 Iteration  1 RMS(Cart)=  0.01637701 RMS(Int)=  0.01552407
 Iteration  2 RMS(Cart)=  0.00890488 RMS(Int)=  0.01733590
 Iteration  3 RMS(Cart)=  0.00481686 RMS(Int)=  0.01955583
 Iteration  4 RMS(Cart)=  0.00259779 RMS(Int)=  0.02100025
 Iteration  5 RMS(Cart)=  0.00139872 RMS(Int)=  0.02183403
 Iteration  6 RMS(Cart)=  0.00075244 RMS(Int)=  0.02229672
 Iteration  7 RMS(Cart)=  0.00040458 RMS(Int)=  0.02254932
 Iteration  8 RMS(Cart)=  0.00021748 RMS(Int)=  0.02268616
 Iteration  9 RMS(Cart)=  0.00011689 RMS(Int)=  0.02276001
 Iteration 10 RMS(Cart)=  0.00006282 RMS(Int)=  0.02279978
 Iteration 11 RMS(Cart)=  0.00003376 RMS(Int)=  0.02282118
 Iteration 12 RMS(Cart)=  0.00001814 RMS(Int)=  0.02283268
 Iteration 13 RMS(Cart)=  0.00000975 RMS(Int)=  0.02283887
 Iteration 14 RMS(Cart)=  0.00000524 RMS(Int)=  0.02284220
 Iteration 15 RMS(Cart)=  0.00000282 RMS(Int)=  0.02284398
 Iteration 16 RMS(Cart)=  0.00000151 RMS(Int)=  0.02284494
 Iteration 17 RMS(Cart)=  0.00000081 RMS(Int)=  0.02284546
 GradGradGradGradGradGradGradGradGradGradGradGradGradGradGradGradGradGrad

                          Input orientation:                          
 ---------------------------------------------------------------------
 Center     Atomic      Atomic             Coordinates (Angstroms)
 Number     Number       Type             X           Y           Z
 ---------------------------------------------------------------------
      1          6           0       -0.684939   -1.367512    0.005759
      2          1           0       -0.391836   -1.824789   -0.946063
      3          1           0       -1.749417   -1.590548    0.068698
      4          1           0       -0.173648   -1.807754    0.867230
      5          6           0       -0.612823    0.144088   -0.054184
      6          8           0       -1.611817    0.865303   -0.015837
      7          7           0        0.646423    0.680158   -0.012476
      8          1           0        0.660821    1.692518   -0.001907
      9          6           0        1.901128   -0.046884    0.016115
     10          1           0        2.713305    0.680464    0.048223
     11          1           0        1.984585   -0.686049    0.900917
     12          1           0        2.036878   -0.666074   -0.876437
 ---------------------------------------------------------------------
                    Distance matrix (angstroms):
                    1          2          3          4          5
     1  C    0.000000
     2  H    1.095892   0.000000
     3  H    1.089412   1.711034   0.000000
     4  H    1.094241   1.826453   1.779854   0.000000
     5  C    1.514506   2.172732   2.077477   2.202627   0.000000
     6  O    2.417650   3.096817   2.461155   3.161230   1.232725
     7  N    2.442501   2.867809   3.301931   2.763351   1.369237
     8  H    3.342890   3.790906   4.073420   3.701843   2.005626
     9  C    2.903775   3.056864   3.963855   2.851273   2.522174
    10  H    3.967880   4.111787   5.007375   3.898268   3.370654
    11  H    2.896905   3.217988   3.931091   2.432556   2.889268
    12  H    2.945943   2.691862   4.010482   3.038130   2.890221
                    6          7          8          9         10
     6  O    0.000000
     7  N    2.265820   0.000000
     8  H    2.418545   1.012517   0.000000
     9  C    3.629586   1.450412   2.136400   0.000000
    10  H    4.329544   2.067773   2.288986   1.090732   0.000000
    11  H    4.022591   2.119313   2.867930   1.094702   1.767902
    12  H    4.049534   2.119466   2.867279   1.094748   1.767968
                   11         12
    11  H    0.000000
    12  H    1.778236   0.000000
 Stoichiometry    C3H7NO
 Framework group  C1[X(C3H7NO)]
 Deg. of freedom    30
 Full point group                 C1      NOp   1
 Largest Abelian subgroup         C1      NOp   1
 Largest concise Abelian subgroup C1      NOp   1
                         Standard orientation:                         
 ---------------------------------------------------------------------
 Center     Atomic      Atomic             Coordinates (Angstroms)
 Number     Number       Type             X           Y           Z
 ---------------------------------------------------------------------
      1          6           0       -0.713293    1.353634   -0.012010
      2          1           0       -0.437662    1.807903    0.946450
      3          1           0       -1.780214    1.561328   -0.085244
      4          1           0       -0.199068    1.808001   -0.864352
      5          6           0       -0.619302   -0.157145    0.037407
      6          8           0       -1.606935   -0.892787   -0.017579
      7          7           0        0.648188   -0.674138    0.005847
      8          1           0        0.677807   -1.686062   -0.012148
      9          6           0        1.892146    0.071637   -0.003179
     10          1           0        2.715392   -0.643314   -0.031601
     11          1           0        1.975904    0.718731   -0.882170
     12          1           0        2.008696    0.685915    0.895460
 ---------------------------------------------------------------------
 Rotational constants (GHZ):      8.7725157      4.0975140      2.8980435
 Standard basis: 6-31G(d) (6D, 7F)
 There are    89 symmetry adapted cartesian basis functions of A   symmetry.
 There are    89 symmetry adapted basis functions of A   symmetry.
    89 basis functions,   168 primitive gaussians,    89 cartesian basis functions
    20 alpha electrons       20 beta electrons
       nuclear repulsion energy       179.6238017856 Hartrees.
 NAtoms=   12 NActive=   12 NUniq=   12 SFac= 1.00D+00 NAtFMM=   60 NAOKFM=F Big=F
 Integral buffers will be    131072 words long.
 Raffenetti 1 integral format.
 Two-electron integral symmetry is turned on.
 One-electron integrals computed using PRISM.
 NBasis=    89 RedAO= T EigKep=  3.84D-03  NBF=    89
 NBsUse=    89 1.00D-06 EigRej= -1.00D+00 NBFU=    89
 Initial guess from the checkpoint file:  "/scratch/bm543/Gau-14714.chk"
 B after Tr=    -0.000000    0.000000   -0.000000
         Rot=    0.999983   -0.000629    0.002615   -0.005142 Ang=  -0.66 deg.
 ExpMin= 1.61D-01 ExpMax= 5.48D+03 ExpMxC= 8.25D+02 IAcc=1 IRadAn=         1 AccDes= 0.00D+00
 Harris functional with IExCor=  205 and IRadAn=       1 diagonalized for initial guess.
 HarFok:  IExCor=  205 AccDes= 0.00D+00 IRadAn=         1 IDoV= 1 UseB2=F ITyADJ=14
 ICtDFT=  3500011 ScaDFX=  1.000000  1.000000  1.000000  1.000000
 FoFCou: FMM=F IPFlag=           0 FMFlag=      100000 FMFlg1=           0
         NFxFlg=           0 DoJE=T BraDBF=F KetDBF=T FulRan=T
         wScrn=  0.000000 ICntrl=     500 IOpCl=  0 I1Cent=   200000004 NGrid=           0
         NMat0=    1 NMatS0=      1 NMatT0=    0 NMatD0=    1 NMtDS0=    0 NMtDT0=    0
 Petite list used in FoFCou.
 Keep R1 ints in memory in canonical form, NReq=8933639.
 Requested convergence on RMS density matrix=1.00D-08 within 128 cycles.
 Requested convergence on MAX density matrix=1.00D-06.
 Requested convergence on             energy=1.00D-06.
 No special actions if energy rises.
 SCF Done:  E(RHF) =  -246.996176682     A.U. after   12 cycles
            NFock= 12  Conv=0.52D-08     -V/T= 2.0027
 ExpMin= 1.61D-01 ExpMax= 5.48D+03 ExpMxC= 8.25D+02 IAcc=3 IRadAn=         5 AccDes= 0.00D+00
 HarFok:  IExCor=  205 AccDes= 0.00D+00 IRadAn=         5 IDoV=-2 UseB2=F ITyADJ=14
 ICtDFT= 12500011 ScaDFX=  1.000000  1.000000  1.000000  1.000000
 Range of M.O.s used for correlation:     6    89
 NBasis=    89 NAE=    20 NBE=    20 NFC=     5 NFV=     0
 NROrb=     84 NOA=    15 NOB=    15 NVA=    69 NVB=    69
 Fully direct method using O(ONN) memory.
 JobTyp=1 Pass  1:  I=   6 to  16 NPSUse=  2 ParTrn=F ParDer=T DoDerP=T.
 JobTyp=1 Pass  2:  I=  17 to  20 NPSUse=  2 ParTrn=F ParDer=T DoDerP=T.
 Spin components of T(2) and E(2):
     alpha-alpha T2 =       0.2928941444D-01 E2=     -0.9299569188D-01
     alpha-beta  T2 =       0.1695239426D+00 E2=     -0.5409116837D+00
     beta-beta   T2 =       0.2928941444D-01 E2=     -0.9299569188D-01
 ANorm=    0.1108197984D+01
 E2 =    -0.7269030675D+00 EUMP2 =    -0.24772307974993D+03
          IDoAtm=111111111111
          Differentiating once with respect to electric field.
                with respect to dipole field.
          Differentiating once with respect to nuclear coordinates.
 Keep R1 ints in memory in canonical form, NReq=8909629.
          There are     1 degrees of freedom in the 1st order CPHF.  IDoFFX=0 NUNeed=     1.
 LinEq1:  Iter=  0 NonCon=     1 RMS=6.61D-03 Max=1.26D-01 NDo=     1
 AX will form     1 AO Fock derivatives at one time.
 LinEq1:  Iter=  1 NonCon=     1 RMS=2.40D-03 Max=3.55D-02 NDo=     1
 LinEq1:  Iter=  2 NonCon=     1 RMS=7.59D-04 Max=9.77D-03 NDo=     1
 LinEq1:  Iter=  3 NonCon=     1 RMS=3.40D-04 Max=5.44D-03 NDo=     1
 LinEq1:  Iter=  4 NonCon=     1 RMS=6.58D-05 Max=5.51D-04 NDo=     1
 LinEq1:  Iter=  5 NonCon=     1 RMS=2.51D-05 Max=3.06D-04 NDo=     1
 LinEq1:  Iter=  6 NonCon=     1 RMS=6.82D-06 Max=8.21D-05 NDo=     1
 LinEq1:  Iter=  7 NonCon=     1 RMS=1.72D-06 Max=2.01D-05 NDo=     1
 LinEq1:  Iter=  8 NonCon=     1 RMS=4.82D-07 Max=5.02D-06 NDo=     1
 LinEq1:  Iter=  9 NonCon=     1 RMS=1.43D-07 Max=1.76D-06 NDo=     1
 LinEq1:  Iter= 10 NonCon=     1 RMS=3.87D-08 Max=5.29D-07 NDo=     1
 LinEq1:  Iter= 11 NonCon=     1 RMS=1.01D-08 Max=1.60D-07 NDo=     1
 LinEq1:  Iter= 12 NonCon=     1 RMS=3.10D-09 Max=3.57D-08 NDo=     1
 LinEq1:  Iter= 13 NonCon=     1 RMS=9.35D-10 Max=7.00D-09 NDo=     1
 LinEq1:  Iter= 14 NonCon=     1 RMS=1.80D-10 Max=1.36D-09 NDo=     1
 LinEq1:  Iter= 15 NonCon=     0 RMS=3.09D-11 Max=2.64D-10 NDo=     1
 Linear equations converged to 1.000D-10 1.000D-09 after    15 iterations.
 End of Minotr F.D. properties file   721 does not exist.
 End of Minotr F.D. properties file   722 does not exist.
 End of Minotr F.D. properties file   788 does not exist.
 Calling FoFJK, ICntrl=  10002127 FMM=F ISym2X=0 I1Cent= 0 IOpClX= 0 NMat=1 NMatS=1 NMatT=0.
 ***** Axes restored to original set *****
 -------------------------------------------------------------------
 Center     Atomic                   Forces (Hartrees/Bohr)
 Number     Number              X              Y              Z
 -------------------------------------------------------------------
      1        6          -0.018392365   -0.001107489   -0.011863437
      2        1           0.011055799   -0.000424181    0.004127539
      3        1          -0.002028223   -0.000846722    0.006142379
      4        1           0.003367547    0.001447577   -0.004866350
      5        6           0.006993763    0.001826427    0.018018172
      6        8          -0.001210753   -0.001075106   -0.006673734
      7        7           0.000230551    0.000317158   -0.003766963
      8        1           0.000156422    0.000093088   -0.000073057
      9        6           0.000047938   -0.000296319   -0.001130463
     10        1          -0.000018075    0.000034826   -0.000058563
     11        1          -0.000114568    0.000166397   -0.000017890
     12        1          -0.000088035   -0.000135657    0.000162366
 -------------------------------------------------------------------
 Cartesian Forces:  Max     0.018392365 RMS     0.005625545

 GradGradGradGradGradGradGradGradGradGradGradGradGradGradGradGradGradGrad
 Berny optimization.
 FormGI is forming the generalized inverse of G from B-inverse, IUseBI=4.
 Internal  Forces:  Max     0.009503817 RMS     0.002704105
 Search for a local minimum.
 Step number   1 out of a maximum of   55 on scan point     2 out of    13
 All quantities printed in internal units (Hartrees-Bohrs-Radians)
 Mixed Optimization -- RFO/linear search
 Second derivative matrix not updated -- first step.
 ITU=  0
     Eigenvalues ---    0.00954   0.01025   0.01431   0.02100   0.04296
     Eigenvalues ---    0.07180   0.07487   0.07686   0.16000   0.16000
     Eigenvalues ---    0.16000   0.16000   0.16000   0.16000   0.16000
     Eigenvalues ---    0.22000   0.24839   0.25000   0.30913   0.34275
     Eigenvalues ---    0.34277   0.34333   0.34334   0.34732   0.34912
     Eigenvalues ---    0.38195   0.45555   0.51136   0.899831000.00000
     Eigenvalues --- 1000.000001000.000001000.000001000.000001000.00000
     Eigenvalues --- 1000.000001000.000001000.000001000.000001000.00000
     Eigenvalues --- 1000.000001000.000001000.000001000.000001000.00000
 RFO step:  Lambda=-4.61755104D-03 EMin= 9.54053937D-03
 Linear search not attempted -- first point.
 Iteration  1 RMS(Cart)=  0.05445814 RMS(Int)=  0.01408529
 Iteration  2 RMS(Cart)=  0.01501425 RMS(Int)=  0.00140294
 Iteration  3 RMS(Cart)=  0.00022562 RMS(Int)=  0.00138753
 Iteration  4 RMS(Cart)=  0.00000004 RMS(Int)=  0.00138753
 Iteration  1 RMS(Cart)=  0.00008438 RMS(Int)=  0.00007786
 Iteration  2 RMS(Cart)=  0.00004570 RMS(Int)=  0.00008699
 Iteration  3 RMS(Cart)=  0.00002475 RMS(Int)=  0.00009818
 Iteration  4 RMS(Cart)=  0.00001341 RMS(Int)=  0.00010550
 Iteration  5 RMS(Cart)=  0.00000726 RMS(Int)=  0.00010975
 Iteration  6 RMS(Cart)=  0.00000393 RMS(Int)=  0.00011213
 Iteration  7 RMS(Cart)=  0.00000213 RMS(Int)=  0.00011344
 Iteration  8 RMS(Cart)=  0.00000115 RMS(Int)=  0.00011415
 Iteration  9 RMS(Cart)=  0.00000062 RMS(Int)=  0.00011454
 Variable       Old X    -DE/DX   Delta X   Delta X   Delta X     New X
                                 (Linear)    (Quad)   (Total)
    R1        2.07094  -0.00045   0.00000  -0.00130  -0.00130   2.06964
    R2        2.05869   0.00251   0.00000   0.00710   0.00710   2.06579
    R3        2.06782  -0.00284   0.00000  -0.00816  -0.00816   2.05965
    R4        2.86200   0.00096   0.00000   0.00306   0.00306   2.86506
    R5        2.32951   0.00014   0.00000   0.00016   0.00016   2.32967
    R6        2.58748   0.00012   0.00000   0.00023   0.00023   2.58771
    R7        1.91338   0.00009   0.00000   0.00021   0.00021   1.91359
    R8        2.74088  -0.00005   0.00000  -0.00014  -0.00014   2.74074
    R9        2.06118   0.00001   0.00000   0.00002   0.00002   2.06121
   R10        2.06869  -0.00012   0.00000  -0.00035  -0.00035   2.06834
   R11        2.06877  -0.00007   0.00000  -0.00019  -0.00019   2.06858
    A1        1.79885   0.00667   0.00000   0.06200   0.06145   1.86031
    A2        1.97244  -0.00457   0.00000  -0.04641  -0.04850   1.92394
    A3        1.94911   0.00003   0.00000  -0.00398  -0.00542   1.94369
    A4        1.90573  -0.00002   0.00000   0.00487   0.00516   1.91089
    A5        1.82673   0.00418   0.00000   0.03780   0.03768   1.86441
    A6        1.99376  -0.00433   0.00000  -0.03581  -0.03686   1.95690
    A7        2.14613  -0.00191   0.00000  -0.00181  -0.00680   2.13933
    A8        2.01900   0.00091   0.00000   0.00918   0.00414   2.02314
    A9        2.11214   0.00153   0.00000   0.01155   0.00645   2.11860
   A10        1.98761   0.00053   0.00000   0.00259   0.00251   1.99011
   A11        2.21421  -0.00076   0.00000  -0.00341  -0.00349   2.21072
   A12        2.08137   0.00024   0.00000   0.00081   0.00073   2.08211
   A13        1.88647   0.00000   0.00000   0.00023   0.00023   1.88670
   A14        1.95472  -0.00025   0.00000  -0.00184  -0.00184   1.95288
   A15        1.95488   0.00009   0.00000   0.00060   0.00060   1.95549
   A16        1.88472   0.00009   0.00000   0.00037   0.00037   1.88509
   A17        1.88476   0.00007   0.00000   0.00100   0.00100   1.88577
   A18        1.89577   0.00002   0.00000  -0.00027  -0.00027   1.89550
    D1        1.94764   0.00421   0.00000  -0.18528  -0.18486   1.76278
    D2       -1.30968   0.00950   0.00000   0.00000  -0.00001  -1.30969
    D3        0.01341  -0.00573   0.00000  -0.27526  -0.27540  -0.26198
    D4        3.03928  -0.00044   0.00000  -0.08999  -0.09054   2.94874
    D5       -2.06993  -0.00608   0.00000  -0.28652  -0.28540  -2.35533
    D6        0.95593  -0.00079   0.00000  -0.10124  -0.10054   0.85539
    D7       -3.08504  -0.00233   0.00000  -0.08818  -0.08875   3.10940
    D8        0.05683  -0.00188   0.00000  -0.06418  -0.06474  -0.00791
    D9       -0.05674   0.00260   0.00000   0.09223   0.09278   0.03604
   D10        3.08513   0.00305   0.00000   0.11623   0.11679  -3.08127
   D11       -3.14035  -0.00029   0.00000  -0.01926  -0.01925   3.12358
   D12       -1.06630  -0.00033   0.00000  -0.01975  -0.01974  -1.08605
   D13        1.06862  -0.00043   0.00000  -0.02100  -0.02100   1.04762
   D14        0.00152   0.00019   0.00000   0.00589   0.00589   0.00742
   D15        2.07558   0.00015   0.00000   0.00541   0.00540   2.08098
   D16       -2.07268   0.00005   0.00000   0.00415   0.00415  -2.06854
         Item               Value     Threshold  Converged?
 Maximum Force            0.005346     0.000450     NO 
 RMS     Force            0.001744     0.000300     NO 
 Maximum Displacement     0.203072     0.001800     NO 
 RMS     Displacement     0.068216     0.001200     NO 
 Predicted change in Energy=-2.900300D-03
 GradGradGradGradGradGradGradGradGradGradGradGradGradGradGradGradGradGrad

                          Input orientation:                          
 ---------------------------------------------------------------------
 Center     Atomic      Atomic             Coordinates (Angstroms)
 Number     Number       Type             X           Y           Z
 ---------------------------------------------------------------------
      1          6           0       -0.699337   -1.362784   -0.012300
      2          1           0       -0.441820   -1.774435   -0.993984
      3          1           0       -1.745031   -1.623513    0.170892
      4          1           0       -0.072722   -1.809095    0.759769
      5          6           0       -0.617603    0.151132   -0.009480
      6          8           0       -1.615397    0.869871   -0.096890
      7          7           0        0.644344    0.682342    0.011717
      8          1           0        0.666198    1.694333   -0.016709
      9          6           0        1.893553   -0.053944    0.040669
     10          1           0        2.712059    0.666970    0.033359
     11          1           0        1.987310   -0.663170    0.945116
     12          1           0        2.007104   -0.704787   -0.832119
 ---------------------------------------------------------------------
                    Distance matrix (angstroms):
                    1          2          3          4          5
     1  C    0.000000
     2  H    1.095206   0.000000
     3  H    1.093167   1.754444   0.000000
     4  H    1.089922   1.792508   1.782648   0.000000
     5  C    1.516124   2.169783   2.110212   2.175116   0.000000
     6  O    2.414762   3.028931   2.511071   3.207892   1.232810
     7  N    2.447161   2.868265   3.324367   2.698337   1.369359
     8  H    3.348234   3.770295   4.105767   3.663731   2.007403
     9  C    2.904986   3.079702   3.964819   2.732013   2.520014
    10  H    3.969837   4.118598   5.013071   3.796521   3.369655
    11  H    2.936695   3.300863   3.930910   2.364579   2.891351
    12  H    2.903426   2.677233   3.991065   2.842408   2.880698
                    6          7          8          9         10
     6  O    0.000000
     7  N    2.270109   0.000000
     8  H    2.427312   1.012626   0.000000
     9  C    3.631127   1.450337   2.136859   0.000000
    10  H    4.334168   2.067886   2.289876   1.090744   0.000000
    11  H    4.051604   2.117828   2.868495   1.094518   1.768002
    12  H    4.017789   2.119742   2.866828   1.094647   1.768540
                   11         12
    11  H    0.000000
    12  H    1.777833   0.000000
 Stoichiometry    C3H7NO
 Framework group  C1[X(C3H7NO)]
 Deg. of freedom    30
 Full point group                 C1      NOp   1
 Largest Abelian subgroup         C1      NOp   1
 Largest concise Abelian subgroup C1      NOp   1
                         Standard orientation:                         
 ---------------------------------------------------------------------
 Center     Atomic      Atomic             Coordinates (Angstroms)
 Number     Number       Type             X           Y           Z
 ---------------------------------------------------------------------
      1          6           0       -0.715073    1.354855   -0.002686
      2          1           0       -0.494287    1.752800    0.993491
      3          1           0       -1.756333    1.609694   -0.216813
      4          1           0       -0.066959    1.818791   -0.746085
      5          6           0       -0.619748   -0.158079   -0.026685
      6          8           0       -1.613440   -0.886500    0.015733
      7          7           0        0.646903   -0.678246   -0.013806
      8          1           0        0.676845   -1.690343   -0.000661
      9          6           0        1.889742    0.068893    0.010930
     10          1           0        2.713962   -0.645134    0.034379
     11          1           0        2.008297    0.693367   -0.880107
     12          1           0        1.968158    0.706534    0.897224
 ---------------------------------------------------------------------
 Rotational constants (GHZ):      8.7895921      4.0961989      2.8969960
 Standard basis: 6-31G(d) (6D, 7F)
 There are    89 symmetry adapted cartesian basis functions of A   symmetry.
 There are    89 symmetry adapted basis functions of A   symmetry.
    89 basis functions,   168 primitive gaussians,    89 cartesian basis functions
    20 alpha electrons       20 beta electrons
       nuclear repulsion energy       179.6342351339 Hartrees.
 NAtoms=   12 NActive=   12 NUniq=   12 SFac= 1.00D+00 NAtFMM=   60 NAOKFM=F Big=F
 Integral buffers will be    131072 words long.
 Raffenetti 1 integral format.
 Two-electron integral symmetry is turned on.
 One-electron integrals computed using PRISM.
 NBasis=    89 RedAO= T EigKep=  3.78D-03  NBF=    89
 NBsUse=    89 1.00D-06 EigRej= -1.00D+00 NBFU=    89
 Initial guess from the checkpoint file:  "/scratch/bm543/Gau-14714.chk"
 B after Tr=     0.000000   -0.000000    0.000000
         Rot=    0.999993   -0.000773    0.003156    0.002039 Ang=  -0.44 deg.
 ExpMin= 1.61D-01 ExpMax= 5.48D+03 ExpMxC= 8.25D+02 IAcc=1 IRadAn=         1 AccDes= 0.00D+00
 Harris functional with IExCor=  205 and IRadAn=       1 diagonalized for initial guess.
 HarFok:  IExCor=  205 AccDes= 0.00D+00 IRadAn=         1 IDoV= 1 UseB2=F ITyADJ=14
 ICtDFT=  3500011 ScaDFX=  1.000000  1.000000  1.000000  1.000000
 FoFCou: FMM=F IPFlag=           0 FMFlag=      100000 FMFlg1=           0
         NFxFlg=           0 DoJE=T BraDBF=F KetDBF=T FulRan=T
         wScrn=  0.000000 ICntrl=     500 IOpCl=  0 I1Cent=   200000004 NGrid=           0
         NMat0=    1 NMatS0=      1 NMatT0=    0 NMatD0=    1 NMtDS0=    0 NMtDT0=    0
 Petite list used in FoFCou.
 Keep R1 ints in memory in canonical form, NReq=8933652.
 Requested convergence on RMS density matrix=1.00D-08 within 128 cycles.
 Requested convergence on MAX density matrix=1.00D-06.
 Requested convergence on             energy=1.00D-06.
 No special actions if energy rises.
 SCF Done:  E(RHF) =  -246.998543485     A.U. after   12 cycles
            NFock= 12  Conv=0.10D-07     -V/T= 2.0027
 ExpMin= 1.61D-01 ExpMax= 5.48D+03 ExpMxC= 8.25D+02 IAcc=3 IRadAn=         5 AccDes= 0.00D+00
 HarFok:  IExCor=  205 AccDes= 0.00D+00 IRadAn=         5 IDoV=-2 UseB2=F ITyADJ=14
 ICtDFT= 12500011 ScaDFX=  1.000000  1.000000  1.000000  1.000000
 Range of M.O.s used for correlation:     6    89
 NBasis=    89 NAE=    20 NBE=    20 NFC=     5 NFV=     0
 NROrb=     84 NOA=    15 NOB=    15 NVA=    69 NVB=    69
 Fully direct method using O(ONN) memory.
 JobTyp=1 Pass  1:  I=   6 to  16 NPSUse=  2 ParTrn=F ParDer=T DoDerP=T.
 JobTyp=1 Pass  2:  I=  17 to  20 NPSUse=  2 ParTrn=F ParDer=T DoDerP=T.
 Spin components of T(2) and E(2):
     alpha-alpha T2 =       0.2927160349D-01 E2=     -0.9295296601D-01
     alpha-beta  T2 =       0.1693636749D+00 E2=     -0.5406965448D+00
     beta-beta   T2 =       0.2927160349D-01 E2=     -0.9295296601D-01
 ANorm=    0.1108109598D+01
 E2 =    -0.7266024769D+00 EUMP2 =    -0.24772514596228D+03
          IDoAtm=111111111111
          Differentiating once with respect to electric field.
                with respect to dipole field.
          Differentiating once with respect to nuclear coordinates.
 Keep R1 ints in memory in canonical form, NReq=8909648.
          There are     1 degrees of freedom in the 1st order CPHF.  IDoFFX=0 NUNeed=     1.
 LinEq1:  Iter=  0 NonCon=     1 RMS=6.60D-03 Max=1.24D-01 NDo=     1
 AX will form     1 AO Fock derivatives at one time.
 LinEq1:  Iter=  1 NonCon=     1 RMS=2.39D-03 Max=3.46D-02 NDo=     1
 LinEq1:  Iter=  2 NonCon=     1 RMS=7.57D-04 Max=9.71D-03 NDo=     1
 LinEq1:  Iter=  3 NonCon=     1 RMS=3.37D-04 Max=5.36D-03 NDo=     1
 LinEq1:  Iter=  4 NonCon=     1 RMS=6.53D-05 Max=5.65D-04 NDo=     1
 LinEq1:  Iter=  5 NonCon=     1 RMS=2.51D-05 Max=3.12D-04 NDo=     1
 LinEq1:  Iter=  6 NonCon=     1 RMS=6.76D-06 Max=8.32D-05 NDo=     1
 LinEq1:  Iter=  7 NonCon=     1 RMS=1.69D-06 Max=1.89D-05 NDo=     1
 LinEq1:  Iter=  8 NonCon=     1 RMS=4.66D-07 Max=4.77D-06 NDo=     1
 LinEq1:  Iter=  9 NonCon=     1 RMS=1.37D-07 Max=1.56D-06 NDo=     1
 LinEq1:  Iter= 10 NonCon=     1 RMS=3.73D-08 Max=5.02D-07 NDo=     1
 LinEq1:  Iter= 11 NonCon=     1 RMS=9.59D-09 Max=1.67D-07 NDo=     1
 LinEq1:  Iter= 12 NonCon=     1 RMS=2.93D-09 Max=3.79D-08 NDo=     1
 LinEq1:  Iter= 13 NonCon=     1 RMS=8.93D-10 Max=6.41D-09 NDo=     1
 LinEq1:  Iter= 14 NonCon=     1 RMS=1.73D-10 Max=1.37D-09 NDo=     1
 LinEq1:  Iter= 15 NonCon=     0 RMS=2.82D-11 Max=1.64D-10 NDo=     1
 Linear equations converged to 1.000D-10 1.000D-09 after    15 iterations.
 End of Minotr F.D. properties file   721 does not exist.
 End of Minotr F.D. properties file   722 does not exist.
 End of Minotr F.D. properties file   788 does not exist.
 Calling FoFJK, ICntrl=  10002127 FMM=F ISym2X=0 I1Cent= 0 IOpClX= 0 NMat=1 NMatS=1 NMatT=0.
 ***** Axes restored to original set *****
 -------------------------------------------------------------------
 Center     Atomic                   Forces (Hartrees/Bohr)
 Number     Number              X              Y              Z
 -------------------------------------------------------------------
      1        6          -0.009792897    0.001041981    0.001305155
      2        1           0.004699915    0.001423929    0.001410116
      3        1           0.001868516    0.000556429    0.001676555
      4        1           0.001947704   -0.002403339   -0.000890192
      5        6           0.001477329   -0.000143197   -0.009087140
      6        8          -0.000077838   -0.000052067    0.003352976
      7        7          -0.000521358   -0.000450187    0.001933793
      8        1          -0.000109406   -0.000109814   -0.000292491
      9        6           0.000276710    0.000005536    0.000622580
     10        1           0.000001058   -0.000026529   -0.000042008
     11        1           0.000494615    0.000109791    0.000039233
     12        1          -0.000264348    0.000047467   -0.000028578
 -------------------------------------------------------------------
 Cartesian Forces:  Max     0.009792897 RMS     0.002597653

 GradGradGradGradGradGradGradGradGradGradGradGradGradGradGradGradGradGrad
 Berny optimization.
 Using GEDIIS/GDIIS optimizer.
 FormGI is forming the generalized inverse of G from B-inverse, IUseBI=4.
 Internal  Forces:  Max     0.003450722 RMS     0.001224024
 Search for a local minimum.
 Step number   2 out of a maximum of   55 on scan point     2 out of    13
 All quantities printed in internal units (Hartrees-Bohrs-Radians)
 Mixed Optimization -- RFO/linear search
 Update second derivatives using D2CorX and points    1    2
 DE= -2.07D-03 DEPred=-2.90D-03 R= 7.12D-01
 TightC=F SS=  1.41D+00  RLast= 5.05D-01 DXNew= 5.0454D-01 1.5137D+00
 Trust test= 7.12D-01 RLast= 5.05D-01 DXMaxT set to 5.05D-01
 ITU=  1  0
 Use linear search instead of GDIIS.
     Eigenvalues ---    0.01021   0.01425   0.01789   0.02183   0.03223
     Eigenvalues ---    0.07190   0.07479   0.07688   0.15952   0.15997
     Eigenvalues ---    0.16000   0.16000   0.16000   0.16000   0.16670
     Eigenvalues ---    0.22070   0.24882   0.24997   0.30933   0.34275
     Eigenvalues ---    0.34277   0.34312   0.34459   0.34732   0.35140
     Eigenvalues ---    0.38199   0.45555   0.51138   0.899851000.00000
     Eigenvalues --- 1000.000001000.000001000.000001000.000001000.00000
     Eigenvalues --- 1000.000001000.000001000.000001000.000001000.00000
     Eigenvalues --- 1000.000001000.000001000.000001000.000001000.00000
 RFO step:  Lambda=-1.09056395D-03 EMin= 1.02111996D-02
 Quartic linear search produced a step of -0.09716.
 Iteration  1 RMS(Cart)=  0.01945868 RMS(Int)=  0.00052003
 Iteration  2 RMS(Cart)=  0.00066496 RMS(Int)=  0.00022261
 Iteration  3 RMS(Cart)=  0.00000009 RMS(Int)=  0.00022261
 Iteration  1 RMS(Cart)=  0.00002874 RMS(Int)=  0.00002697
 Iteration  2 RMS(Cart)=  0.00001568 RMS(Int)=  0.00003012
 Iteration  3 RMS(Cart)=  0.00000855 RMS(Int)=  0.00003403
 Iteration  4 RMS(Cart)=  0.00000467 RMS(Int)=  0.00003660
 Iteration  5 RMS(Cart)=  0.00000254 RMS(Int)=  0.00003811
 Iteration  6 RMS(Cart)=  0.00000139 RMS(Int)=  0.00003896
 Iteration  7 RMS(Cart)=  0.00000076 RMS(Int)=  0.00003943
 Variable       Old X    -DE/DX   Delta X   Delta X   Delta X     New X
                                 (Linear)    (Quad)   (Total)
    R1        2.06964  -0.00069   0.00013  -0.00234  -0.00222   2.06742
    R2        2.06579  -0.00164  -0.00069  -0.00130  -0.00199   2.06379
    R3        2.05965   0.00147   0.00079   0.00051   0.00130   2.06095
    R4        2.86506  -0.00056  -0.00030  -0.00036  -0.00066   2.86440
    R5        2.32967  -0.00021  -0.00002  -0.00014  -0.00015   2.32952
    R6        2.58771  -0.00024  -0.00002  -0.00033  -0.00035   2.58736
    R7        1.91359  -0.00010  -0.00002  -0.00012  -0.00014   1.91344
    R8        2.74074   0.00038   0.00001   0.00083   0.00085   2.74159
    R9        2.06121  -0.00002  -0.00000  -0.00003  -0.00004   2.06117
   R10        2.06834   0.00001   0.00003  -0.00011  -0.00007   2.06827
   R11        2.06858  -0.00003   0.00002  -0.00016  -0.00015   2.06844
    A1        1.86031   0.00324  -0.00597   0.05652   0.05065   1.91095
    A2        1.92394  -0.00237   0.00471  -0.05010  -0.04629   1.87765
    A3        1.94369  -0.00311   0.00053  -0.02317  -0.02307   1.92061
    A4        1.91089  -0.00063  -0.00050   0.00383   0.00322   1.91411
    A5        1.86441   0.00085  -0.00366   0.02945   0.02578   1.89019
    A6        1.95690   0.00222   0.00358  -0.00973  -0.00667   1.95023
    A7        2.13933  -0.00016   0.00066  -0.00294  -0.00276   2.13657
    A8        2.02314   0.00037  -0.00040   0.00364   0.00276   2.02590
    A9        2.11860  -0.00008  -0.00063   0.00317   0.00206   2.12066
   A10        1.99011  -0.00058  -0.00024  -0.00158  -0.00183   1.98828
   A11        2.21072   0.00093   0.00034   0.00229   0.00262   2.21334
   A12        2.08211  -0.00035  -0.00007  -0.00102  -0.00111   2.08100
   A13        1.88670  -0.00005  -0.00002  -0.00055  -0.00057   1.88613
   A14        1.95288   0.00068   0.00018   0.00342   0.00360   1.95648
   A15        1.95549  -0.00048  -0.00006  -0.00241  -0.00247   1.95302
   A16        1.88509  -0.00029  -0.00004  -0.00142  -0.00145   1.88364
   A17        1.88577   0.00011  -0.00010   0.00030   0.00020   1.88597
   A18        1.89550   0.00001   0.00003   0.00057   0.00060   1.89610
    D1        1.76278   0.00345   0.01796   0.06320   0.08089   1.84367
    D2       -1.30969   0.00133   0.00000   0.00000  -0.00000  -1.30969
    D3       -0.26198   0.00072   0.02676  -0.00936   0.01735  -0.24463
    D4        2.94874  -0.00140   0.00880  -0.07256  -0.06354   2.88520
    D5       -2.35533  -0.00035   0.02773  -0.02733   0.00058  -2.35475
    D6        0.85539  -0.00247   0.00977  -0.09053  -0.08031   0.77507
    D7        3.10940   0.00064   0.00862   0.01485   0.02354   3.13294
    D8       -0.00791   0.00073   0.00629   0.02970   0.03606   0.02815
    D9        0.03604  -0.00144  -0.00901  -0.04727  -0.05635  -0.02031
   D10       -3.08127  -0.00136  -0.01135  -0.03241  -0.04383  -3.12510
   D11        3.12358  -0.00025   0.00187  -0.02226  -0.02039   3.10318
   D12       -1.08605  -0.00023   0.00192  -0.02232  -0.02041  -1.10645
   D13        1.04762  -0.00007   0.00204  -0.02084  -0.01880   1.02882
   D14        0.00742  -0.00016  -0.00057  -0.00670  -0.00727   0.00014
   D15        2.08098  -0.00014  -0.00052  -0.00676  -0.00729   2.07369
   D16       -2.06854   0.00002  -0.00040  -0.00528  -0.00568  -2.07422
         Item               Value     Threshold  Converged?
 Maximum Force            0.003075     0.000450     NO 
 RMS     Force            0.001202     0.000300     NO 
 Maximum Displacement     0.061277     0.001800     NO 
 RMS     Displacement     0.019561     0.001200     NO 
 Predicted change in Energy=-5.808923D-04
 GradGradGradGradGradGradGradGradGradGradGradGradGradGradGradGradGradGrad

                          Input orientation:                          
 ---------------------------------------------------------------------
 Center     Atomic      Atomic             Coordinates (Angstroms)
 Number     Number       Type             X           Y           Z
 ---------------------------------------------------------------------
      1          6           0       -0.714218   -1.358961   -0.017642
      2          1           0       -0.427407   -1.766853   -0.991435
      3          1           0       -1.747340   -1.635629    0.203318
      4          1           0       -0.049844   -1.793498    0.730162
      5          6           0       -0.621035    0.153780   -0.040195
      6          8           0       -1.618478    0.876689   -0.086327
      7          7           0        0.642166    0.679718    0.008206
      8          1           0        0.666782    1.691666   -0.016626
      9          6           0        1.890442   -0.058650    0.045607
     10          1           0        2.709679    0.661422    0.040295
     11          1           0        1.982225   -0.666620    0.951054
     12          1           0        2.005688   -0.710144   -0.826378
 ---------------------------------------------------------------------
                    Distance matrix (angstroms):
                    1          2          3          4          5
     1  C    0.000000
     2  H    1.094033   0.000000
     3  H    1.092113   1.785183   0.000000
     4  H    1.090609   1.762714   1.784371   0.000000
     5  C    1.515776   2.152018   2.128344   2.170623   0.000000
     6  O    2.412578   3.037463   2.532240   3.202681   1.232728
     7  N    2.448808   2.851136   3.332963   2.667752   1.369171
     8  H    3.348654   3.756175   4.116704   3.635604   2.006021
     9  C    2.911883   3.060365   3.968021   2.691287   2.521905
    10  H    3.975975   4.099060   5.016776   3.757329   3.370139
    11  H    2.947629   3.284829   3.925270   2.334085   2.903893
    12  H    2.910826   2.657786   4.000252   2.796728   2.874738
                    6          7          8          9         10
     6  O    0.000000
     7  N    2.271177   0.000000
     8  H    2.427233   1.012551   0.000000
     9  C    3.633839   1.450786   2.136545   0.000000
    10  H    4.335357   2.067843   2.288683   1.090726   0.000000
    11  H    4.052534   2.120695   2.868503   1.094480   1.767022
    12  H    4.024959   2.118358   2.866541   1.094570   1.768592
                   11         12
    11  H    0.000000
    12  H    1.778120   0.000000
 Stoichiometry    C3H7NO
 Framework group  C1[X(C3H7NO)]
 Deg. of freedom    30
 Full point group                 C1      NOp   1
 Largest Abelian subgroup         C1      NOp   1
 Largest concise Abelian subgroup C1      NOp   1
                         Standard orientation:                         
 ---------------------------------------------------------------------
 Center     Atomic      Atomic             Coordinates (Angstroms)
 Number     Number       Type             X           Y           Z
 ---------------------------------------------------------------------
      1          6           0       -0.720113    1.355305   -0.003437
      2          1           0       -0.468191    1.750791    0.985014
      3          1           0       -1.746325    1.631082   -0.255519
      4          1           0       -0.032643    1.802645   -0.722255
      5          6           0       -0.621311   -0.157239    0.001573
      6          8           0       -1.616660   -0.884490    0.003943
      7          7           0        0.645031   -0.677669   -0.011128
      8          1           0        0.673097   -1.689762    0.000682
      9          6           0        1.890704    0.065870    0.003949
     10          1           0        2.712348   -0.651098    0.027207
     11          1           0        2.010519    0.686633   -0.889463
     12          1           0        1.973573    0.705689    0.888171
 ---------------------------------------------------------------------
 Rotational constants (GHZ):      8.8049773      4.0904967      2.8942152
 Standard basis: 6-31G(d) (6D, 7F)
 There are    89 symmetry adapted cartesian basis functions of A   symmetry.
 There are    89 symmetry adapted basis functions of A   symmetry.
    89 basis functions,   168 primitive gaussians,    89 cartesian basis functions
    20 alpha electrons       20 beta electrons
       nuclear repulsion energy       179.6401926806 Hartrees.
 NAtoms=   12 NActive=   12 NUniq=   12 SFac= 1.00D+00 NAtFMM=   60 NAOKFM=F Big=F
 Integral buffers will be    131072 words long.
 Raffenetti 1 integral format.
 Two-electron integral symmetry is turned on.
 One-electron integrals computed using PRISM.
 NBasis=    89 RedAO= T EigKep=  3.74D-03  NBF=    89
 NBsUse=    89 1.00D-06 EigRej= -1.00D+00 NBFU=    89
 Initial guess from the checkpoint file:  "/scratch/bm543/Gau-14714.chk"
 B after Tr=     0.000000   -0.000000   -0.000000
         Rot=    0.999999    0.000263   -0.000017    0.001249 Ang=   0.15 deg.
 ExpMin= 1.61D-01 ExpMax= 5.48D+03 ExpMxC= 8.25D+02 IAcc=1 IRadAn=         1 AccDes= 0.00D+00
 Harris functional with IExCor=  205 and IRadAn=       1 diagonalized for initial guess.
 HarFok:  IExCor=  205 AccDes= 0.00D+00 IRadAn=         1 IDoV= 1 UseB2=F ITyADJ=14
 ICtDFT=  3500011 ScaDFX=  1.000000  1.000000  1.000000  1.000000
 FoFCou: FMM=F IPFlag=           0 FMFlag=      100000 FMFlg1=           0
         NFxFlg=           0 DoJE=T BraDBF=F KetDBF=T FulRan=T
         wScrn=  0.000000 ICntrl=     500 IOpCl=  0 I1Cent=   200000004 NGrid=           0
         NMat0=    1 NMatS0=      1 NMatT0=    0 NMatD0=    1 NMtDS0=    0 NMtDT0=    0
 Petite list used in FoFCou.
 Keep R1 ints in memory in canonical form, NReq=8933652.
 Requested convergence on RMS density matrix=1.00D-08 within 128 cycles.
 Requested convergence on MAX density matrix=1.00D-06.
 Requested convergence on             energy=1.00D-06.
 No special actions if energy rises.
 SCF Done:  E(RHF) =  -246.999100337     A.U. after   12 cycles
            NFock= 12  Conv=0.51D-08     -V/T= 2.0027
 ExpMin= 1.61D-01 ExpMax= 5.48D+03 ExpMxC= 8.25D+02 IAcc=3 IRadAn=         5 AccDes= 0.00D+00
 HarFok:  IExCor=  205 AccDes= 0.00D+00 IRadAn=         5 IDoV=-2 UseB2=F ITyADJ=14
 ICtDFT= 12500011 ScaDFX=  1.000000  1.000000  1.000000  1.000000
 Range of M.O.s used for correlation:     6    89
 NBasis=    89 NAE=    20 NBE=    20 NFC=     5 NFV=     0
 NROrb=     84 NOA=    15 NOB=    15 NVA=    69 NVB=    69
 Fully direct method using O(ONN) memory.
 JobTyp=1 Pass  1:  I=   6 to  16 NPSUse=  2 ParTrn=F ParDer=T DoDerP=T.
 JobTyp=1 Pass  2:  I=  17 to  20 NPSUse=  2 ParTrn=F ParDer=T DoDerP=T.
 Spin components of T(2) and E(2):
     alpha-alpha T2 =       0.2925373166D-01 E2=     -0.9292195430D-01
     alpha-beta  T2 =       0.1692381982D+00 E2=     -0.5405325260D+00
     beta-beta   T2 =       0.2925373166D-01 E2=     -0.9292195430D-01
 ANorm=    0.1108036850D+01
 E2 =    -0.7263764346D+00 EUMP2 =    -0.24772547677169D+03
          IDoAtm=111111111111
          Differentiating once with respect to electric field.
                with respect to dipole field.
          Differentiating once with respect to nuclear coordinates.
 Keep R1 ints in memory in canonical form, NReq=8909669.
          There are     1 degrees of freedom in the 1st order CPHF.  IDoFFX=0 NUNeed=     1.
 LinEq1:  Iter=  0 NonCon=     1 RMS=6.59D-03 Max=1.24D-01 NDo=     1
 AX will form     1 AO Fock derivatives at one time.
 LinEq1:  Iter=  1 NonCon=     1 RMS=2.38D-03 Max=3.48D-02 NDo=     1
 LinEq1:  Iter=  2 NonCon=     1 RMS=7.55D-04 Max=9.74D-03 NDo=     1
 LinEq1:  Iter=  3 NonCon=     1 RMS=3.36D-04 Max=5.33D-03 NDo=     1
 LinEq1:  Iter=  4 NonCon=     1 RMS=6.48D-05 Max=5.73D-04 NDo=     1
 LinEq1:  Iter=  5 NonCon=     1 RMS=2.49D-05 Max=3.23D-04 NDo=     1
 LinEq1:  Iter=  6 NonCon=     1 RMS=6.61D-06 Max=8.66D-05 NDo=     1
 LinEq1:  Iter=  7 NonCon=     1 RMS=1.62D-06 Max=2.06D-05 NDo=     1
 LinEq1:  Iter=  8 NonCon=     1 RMS=4.36D-07 Max=5.65D-06 NDo=     1
 LinEq1:  Iter=  9 NonCon=     1 RMS=1.24D-07 Max=9.32D-07 NDo=     1
 LinEq1:  Iter= 10 NonCon=     1 RMS=3.18D-08 Max=2.71D-07 NDo=     1
 LinEq1:  Iter= 11 NonCon=     1 RMS=6.14D-09 Max=4.70D-08 NDo=     1
 LinEq1:  Iter= 12 NonCon=     1 RMS=1.61D-09 Max=2.16D-08 NDo=     1
 LinEq1:  Iter= 13 NonCon=     1 RMS=5.36D-10 Max=1.11D-08 NDo=     1
 LinEq1:  Iter= 14 NonCon=     1 RMS=1.35D-10 Max=2.55D-09 NDo=     1
 LinEq1:  Iter= 15 NonCon=     0 RMS=2.47D-11 Max=2.24D-10 NDo=     1
 Linear equations converged to 1.000D-10 1.000D-09 after    15 iterations.
 End of Minotr F.D. properties file   721 does not exist.
 End of Minotr F.D. properties file   722 does not exist.
 End of Minotr F.D. properties file   788 does not exist.
 Calling FoFJK, ICntrl=  10002127 FMM=F ISym2X=0 I1Cent= 0 IOpClX= 0 NMat=1 NMatS=1 NMatT=0.
 ***** Axes restored to original set *****
 -------------------------------------------------------------------
 Center     Atomic                   Forces (Hartrees/Bohr)
 Number     Number              X              Y              Z
 -------------------------------------------------------------------
      1        6           0.000167153    0.001148879   -0.000886593
      2        1          -0.000629108   -0.000821187   -0.000553072
      3        1           0.001805533    0.001094549   -0.001435745
      4        1           0.000275441   -0.001110467    0.001497242
      5        6          -0.002226674   -0.000636486    0.004009672
      6        8           0.000542146    0.000645608   -0.001217244
      7        7          -0.000053881   -0.000631874   -0.000858479
      8        1          -0.000120082   -0.000035875   -0.000085096
      9        6           0.000105961    0.000307353   -0.000530939
     10        1           0.000009537   -0.000011358   -0.000192273
     11        1           0.000009490    0.000144996    0.000193490
     12        1           0.000114483   -0.000094139    0.000059036
 -------------------------------------------------------------------
 Cartesian Forces:  Max     0.004009672 RMS     0.001039284

 GradGradGradGradGradGradGradGradGradGradGradGradGradGradGradGradGradGrad
 Berny optimization.
 Using GEDIIS/GDIIS optimizer.
 FormGI is forming the generalized inverse of G from B-inverse, IUseBI=4.
 Internal  Forces:  Max     0.002275778 RMS     0.000732069
 Search for a local minimum.
 Step number   3 out of a maximum of   55 on scan point     2 out of    13
 All quantities printed in internal units (Hartrees-Bohrs-Radians)
 Mixed Optimization -- En-DIIS/RFO-DIIS
 Update second derivatives using D2CorX and points    1    2    3
 DE= -3.31D-04 DEPred=-5.81D-04 R= 5.69D-01
 TightC=F SS=  1.41D+00  RLast= 1.78D-01 DXNew= 8.4853D-01 5.3355D-01
 Trust test= 5.69D-01 RLast= 1.78D-01 DXMaxT set to 5.34D-01
 ITU=  1  1  0
 Use linear search instead of GDIIS.
     Eigenvalues ---    0.00989   0.01393   0.01667   0.02175   0.05087
     Eigenvalues ---    0.07182   0.07355   0.07692   0.15970   0.15994
[...]
           A4         109.38295 109.61814 109.66089 109.48969 109.20173
           A5         107.78326 107.50399 107.44179 107.50338 107.96302
           A6         111.24712 112.58076 113.51639 114.34062 114.72537
           A7         122.81625 122.47099 122.08464 121.52716 121.18379
           A8         115.79805 116.20912 116.59765 117.27358 117.69659
           A9         121.38570 121.29977 121.31273 121.19914 121.11961
           A10        113.88066 113.50579 113.54898 113.07932 113.03863
           A11        126.86319 126.86526 127.29237 127.60948 128.20422
           A12        119.25615 118.83131 119.02188 118.68302 118.73294
           A13        108.08433 108.25302 108.04901 107.89883 107.83420
           A14        111.99938 112.84159 112.24377 111.90898 112.01296
           A15        112.00737 110.84055 111.70212 112.15806 112.09353
           A16        107.98746 108.28274 108.01974 107.86431 107.89245
           A17        107.98922 107.75266 107.90300 107.99276 107.92652
           A18        108.61772 108.71429 108.76443 108.85032 108.90922
           D1         119.96184 103.34741  89.15837  74.83306  59.99434
           D2         -60.03930 -75.03932 -90.03929-105.03930-120.03936
           D3           0.04273 -14.73853 -27.69056 -41.16982 -55.91206
           D4        -179.95842 166.87474 153.11179 138.95782 124.05423
           D5        -119.86895-135.56464-149.11195-162.94761-177.91325
           D6          60.12991  46.04863  31.69040  17.18003   2.05304
           D7         179.99155-176.74554 178.39442 177.02879 179.44583
           D8           0.00010  -7.18685   2.72888   6.33365   1.28012
           D9          -0.00957   4.84734  -0.80988  -2.84401  -0.58784
           D10       -180.00103 174.40603-176.47543-173.53915-178.75356
           D11       -179.92482 169.02201 170.11708 173.31421 179.00411
           D12        -61.08927 -71.15275 -70.88436 -68.17320 -62.42880
           D13         61.23271  51.04678  51.58353  54.49693  60.34784
           D14          0.08414 -21.91357  -5.33844   3.07602   0.92916
           D15        118.91969  97.91167 113.66012 121.58862 119.49625
           D16       -118.75833-139.88880-123.87199-115.74126-117.72711
                           6         7         8         9        10
     Eigenvalues --  -247.72441-247.72499-247.72564-247.72597-247.72562
           R1           1.09110   1.09003   1.08940   1.08918   1.08936
           R2           1.09340   1.09438   1.09459   1.09411   1.09290
           R3           1.09045   1.09161   1.09296   1.09409   1.09465
           R4           1.51539   1.51511   1.51500   1.51446   1.51415
           R5           1.23276   1.23269   1.23263   1.23228   1.23215
           R6           1.36892   1.36899   1.36959   1.37237   1.37418
           R7           1.01308   1.01286   1.01298   1.01376   1.01432
           R8           1.45219   1.45161   1.45056   1.45145   1.45288
           R9           1.09085   1.09083   1.09108   1.09120   1.09110
           R10          1.09431   1.09404   1.09239   1.09160   1.09147
           R11          1.09402   1.09472   1.09640   1.09702   1.09696
           A1         107.88004 108.53934 109.11886 109.32292 109.21584
           A2         109.16464 109.24468 109.27638 109.38541 109.28076
           A3         107.68109 107.62747 107.64753 107.69289 107.63891
           A4         108.84162 108.38072 108.02351 107.87254 107.99605
           A5         108.84536 109.68879 110.40264 111.07754 111.96422
           A6         114.24701 113.26495 112.33060 111.46724 110.71317
           A7         121.42387 122.03473 122.46573 122.65679 122.47160
           A8         117.41925 116.68641 116.22437 116.07358 116.35716
           A9         121.15688 121.27730 121.29355 121.24551 121.15067
           A10        113.01339 113.38616 113.53770 112.88179 112.21037
           A11        127.79150 127.28331 126.96510 126.07470 125.70970
           A12        118.65415 118.89741 118.88857 118.10788 117.44747
           A13        107.87080 108.00549 108.23186 108.33388 108.21349
           A14        112.18449 111.91935 110.91595 110.49902 110.61152
           A15        111.90407 112.08038 112.79813 113.06330 113.09564
           A16        107.98649 107.95118 107.75724 107.72328 107.69640
           A17        107.85647 107.95315 108.26381 108.40218 108.41208
           A18        108.86898 108.77039 108.71755 108.66291 108.65055
           D1          44.94653  30.40926  16.41506   1.72817 -13.40530
           D2        -135.03937-150.03935-165.03933 179.96069 164.96074
           D3         -71.75242 -87.49762-102.59990-117.95306-133.44699
           D4         108.26168  92.05376  75.94571  60.27946  44.91905
           D5         166.37781 151.27745 136.75892 121.71627 105.97894
           D6         -13.60809 -29.17117 -44.69547 -60.05120 -75.65501
           D7        -177.34303-177.36372 177.11266 174.01374 172.99296
           D8          -5.98804  -5.07510   6.23906  13.93436  17.94505
           D9           2.67103   2.19130  -4.32334  -7.72678  -8.61779
           D10        174.02602 174.47992-175.19694-167.80616-163.66570
           D11       -174.27516-170.60051-169.04221-170.49667-174.81215
           D12        -55.46796 -51.90742 -51.03083 -52.70433 -57.06012
           D13         67.24248  70.60860  71.19743  69.33455  65.06868
           D14         -3.34611   1.31252  20.51796  30.35059  31.29809
           D15        115.46109 120.00561 138.52934 148.14293 149.05011
           D16       -121.82848-117.47837 -99.24239 -89.81819 -88.82109
                          11        12        13
     Eigenvalues --  -247.72499-247.72441-247.72422
           R1           1.09003   1.09110   1.09250
           R2           1.09161   1.09045   1.09000
           R3           1.09438   1.09340   1.09212
           R4           1.51512   1.51538   1.51549
           R5           1.23269   1.23276   1.23288
           R6           1.36898   1.36894   1.36827
           R7           1.01286   1.01308   1.01300
           R8           1.45161   1.45217   1.45190
           R9           1.09083   1.09085   1.09086
           R10          1.09472   1.09402   1.09414
           R11          1.09404   1.09432   1.09404
           A1         109.24489 109.16452 109.16436
           A2         108.53684 107.87681 107.38426
           A3         107.62561 107.68327 108.16571
           A4         108.38330 108.84359 109.20105
           A5         113.26880 114.25246 114.71931
           A6         109.68622 108.83860 107.95856
           A7         122.03076 121.42235 121.18296
           A8         116.69057 117.42228 117.69725
           A9         121.27716 121.15536 121.11978
           A10        113.38254 113.00875 113.03675
           A11        127.28129 127.79219 128.20510
           A12        118.89615 118.65224 118.73421
           A13        108.00511 107.87304 107.83595
           A14        112.07844 111.89904 112.09049
           A15        111.92069 112.18895 112.01407
           A16        107.95295 107.85439 107.92608
           A17        107.95142 107.98736 107.89195
           A18        108.77133 108.86849 108.91037
           D1         -30.48162 -45.02072 -60.07826
           D2         149.96069 134.96075 119.96070
           D3        -151.35119-166.45696 177.82134
           D4          29.09112  13.52451  -2.13970
           D5          87.41981  71.67203  55.82841
           D6         -92.13788-108.34650-124.13263
           D7         177.34674 177.32283-179.46740
           D8           5.11902   6.01440  -1.29121
           D9          -2.21452  -2.69565   0.57153
           D10       -174.44225-174.00409 178.74772
           D11        170.58242 174.32098-178.97597
           D12        -70.62833 -67.20073 -60.32091
           D13         51.88849  55.50863  62.45579
           D14         -1.26659   3.44097  -0.89007
           D15        117.52266 121.91926 117.76499
           D16       -119.96052-115.37138-119.45831
                          Input orientation:                          
 ---------------------------------------------------------------------
 Center     Atomic      Atomic             Coordinates (Angstroms)
 Number     Number       Type             X           Y           Z
 ---------------------------------------------------------------------
      1          6           0       -0.679474   -1.407775   -0.220767
      2          1           0       -1.522638   -1.555310    0.458104
      3          1           0        0.201418   -1.900883    0.190300
      4          1           0       -0.941277   -1.874953   -1.172575
      5          6           0       -0.519478    0.080295   -0.459013
      6          8           0       -1.427820    0.748217   -0.957810
      7          7           0        0.668690    0.657377   -0.102096
      8          1           0        0.695978    1.653547   -0.283939
      9          6           0        1.823052    0.028488    0.514318
     10          1           0        2.579456    0.798802    0.670697
     11          1           0        1.582233   -0.409528    1.487606
     12          1           0        2.258522   -0.745359   -0.124785
 ---------------------------------------------------------------------
                    Distance matrix (angstroms):
                    1          2          3          4          5
     1  C    0.000000
     2  H    1.092502   0.000000
     3  H    1.090001   1.778626   0.000000
     4  H    1.092124   1.760474   1.778722   0.000000
     5  C    1.515491   2.126650   2.205984   2.123695   0.000000
     6  O    2.398240   2.705557   3.315162   2.676540   1.232884
     7  N    2.469105   3.164131   2.616970   3.186003   1.368267
     8  H    3.356717   3.971102   3.619871   3.990061   1.995772
     9  C    2.977555   3.702056   2.541093   3.756356   2.537223
    10  H    4.035383   4.734365   3.629620   4.789799   3.375779
    11  H    3.005055   3.465965   2.411181   3.948688   2.906276
    12  H    3.013275   3.910621   2.380376   3.551417   2.917309
                    6          7          8          9         10
     6  O    0.000000
     7  N    2.266242   0.000000
     8  H    2.405046   1.012999   0.000000
     9  C    3.640513   1.451902   2.132681   0.000000
    10  H    4.325835   2.065971   2.278027   1.090865   0.000000
    11  H    4.047326   2.121320   2.860087   1.094139   1.766878
    12  H    4.063719   2.120318   2.867337   1.094041   1.766415
                   11         12
    11  H    0.000000
    12  H    1.780437   0.000000
 Stoichiometry    C3H7NO
 Framework group  C1[X(C3H7NO)]
 Deg. of freedom    30
 Full point group                 C1      NOp   1
 Largest Abelian subgroup         C1      NOp   1
 Largest concise Abelian subgroup C1      NOp   1
                         Standard orientation:                         
 ---------------------------------------------------------------------
 Center     Atomic      Atomic             Coordinates (Angstroms)
 Number     Number       Type             X           Y           Z
 ---------------------------------------------------------------------
      1          6           0       -0.796115    1.337496    0.001632
      2          1           0       -1.346063    1.612018   -0.901560
      3          1           0        0.128947    1.912301    0.045902
      4          1           0       -1.422609    1.598735    0.857199
      5          6           0       -0.608426   -0.166327    0.001780
      6          8           0       -1.575979   -0.930392   -0.005274
      7          7           0        0.672462   -0.647366    0.010839
      8          1           0        0.715910   -1.659390    0.001661
      9          6           0        1.914264    0.104761   -0.005085
     10          1           0        2.738001   -0.610377   -0.009594
     11          1           0        2.005616    0.729318   -0.898799
     12          1           0        2.022465    0.736510    0.881544
 ---------------------------------------------------------------------
 Rotational constants (GHZ):      8.7957275      4.0343476      2.8649126

 **********************************************************************

            Population analysis using the SCF density.

 **********************************************************************

 Orbital symmetries:
       Occupied  (A) (A) (A) (A) (A) (A) (A) (A) (A) (A) (A) (A)
                 (A) (A) (A) (A) (A) (A) (A) (A)
       Virtual   (A) (A) (A) (A) (A) (A) (A) (A) (A) (A) (A) (A)
                 (A) (A) (A) (A) (A) (A) (A) (A) (A) (A) (A) (A)
                 (A) (A) (A) (A) (A) (A) (A) (A) (A) (A) (A) (A)
                 (A) (A) (A) (A) (A) (A) (A) (A) (A) (A) (A) (A)
                 (A) (A) (A) (A) (A) (A) (A) (A) (A) (A) (A) (A)
                 (A) (A) (A) (A) (A) (A) (A) (A) (A)
 The electronic state is 1-A.
 Alpha  occ. eigenvalues --  -20.51154 -15.58726 -11.34996 -11.27843 -11.23474
 Alpha  occ. eigenvalues --   -1.36099  -1.22272  -1.00379  -0.95549  -0.77912
 Alpha  occ. eigenvalues --   -0.67094  -0.66261  -0.63472  -0.58598  -0.57174
 Alpha  occ. eigenvalues --   -0.55681  -0.55504  -0.50163  -0.40981  -0.38074
 Alpha virt. eigenvalues --    0.19133   0.21788   0.24769   0.27883   0.30811
 Alpha virt. eigenvalues --    0.32011   0.32618   0.33842   0.36274   0.41919
 Alpha virt. eigenvalues --    0.48883   0.59439   0.70456   0.71872   0.75393
 Alpha virt. eigenvalues --    0.80717   0.82407   0.84754   0.86840   0.95161
 Alpha virt. eigenvalues --    0.97629   1.02309   1.05493   1.06611   1.12029
 Alpha virt. eigenvalues --    1.13071   1.15082   1.15655   1.17826   1.19498
 Alpha virt. eigenvalues --    1.20228   1.25810   1.31451   1.34906   1.39687
 Alpha virt. eigenvalues --    1.50739   1.60026   1.62509   1.69971   1.74957
 Alpha virt. eigenvalues --    1.76733   1.93992   2.05550   2.09828   2.12120
 Alpha virt. eigenvalues --    2.17258   2.22911   2.25837   2.30089   2.38250
 Alpha virt. eigenvalues --    2.39493   2.44257   2.52372   2.54613   2.56892
 Alpha virt. eigenvalues --    2.63463   2.81182   2.83926   2.86817   2.97677
 Alpha virt. eigenvalues --    2.98650   3.25405   3.36452   3.48184   4.31474
 Alpha virt. eigenvalues --    4.40634   4.59554   4.71369   4.93610
          Condensed to atoms (all electrons):
               1          2          3          4          5          6
     1  C    5.283495   0.381313   0.366857   0.381957   0.349365  -0.077924
     2  H    0.381313   0.476130  -0.023269  -0.018037  -0.027558   0.000217
     3  H    0.366857  -0.023269   0.531227  -0.023233  -0.028558   0.002915
     4  H    0.381957  -0.018037  -0.023233   0.473979  -0.027927   0.000421
     5  C    0.349365  -0.027558  -0.028558  -0.027927   4.126172   0.591830
     6  O   -0.077924   0.000217   0.002915   0.000421   0.591830   8.195880
     7  N   -0.104744   0.001882   0.003265   0.002115   0.301454  -0.091687
     8  H    0.005508  -0.000138  -0.000183  -0.000134  -0.015400   0.007554
     9  C    0.002012  -0.000030  -0.003549  -0.000006  -0.019948   0.001996
    10  H    0.000087  -0.000004   0.000364  -0.000003   0.001620  -0.000056
    11  H   -0.001440   0.000295  -0.001116  -0.000068  -0.001302   0.000019
    12  H   -0.001436  -0.000073  -0.001025   0.000241  -0.001222   0.000010
               7          8          9         10         11         12
     1  C   -0.104744   0.005508   0.002012   0.000087  -0.001440  -0.001436
     2  H    0.001882  -0.000138  -0.000030  -0.000004   0.000295  -0.000073
     3  H    0.003265  -0.000183  -0.003549   0.000364  -0.001116  -0.001025
     4  H    0.002115  -0.000134  -0.000006  -0.000003  -0.000068   0.000241
     5  C    0.301454  -0.015400  -0.019948   0.001620  -0.001302  -0.001222
     6  O   -0.091687   0.007554   0.001996  -0.000056   0.000019   0.000010
     7  N    7.296052   0.312650   0.196007  -0.032272  -0.047023  -0.047058
     8  H    0.312650   0.318476  -0.022027  -0.004836   0.001727   0.001778
     9  C    0.196007  -0.022027   4.920397   0.400564   0.401340   0.401462
    10  H   -0.032272  -0.004836   0.400564   0.498993  -0.025803  -0.025808
    11  H   -0.047023   0.001727   0.401340  -0.025803   0.535797  -0.039791
    12  H   -0.047058   0.001778   0.401462  -0.025808  -0.039791   0.535134
 Mulliken charges:
               1
     1  C   -0.585050
     2  H    0.209273
     3  H    0.176306
     4  H    0.210694
     5  C    0.751474
     6  O   -0.631176
     7  N   -0.790640
     8  H    0.395025
     9  C   -0.278216
    10  H    0.187154
    11  H    0.177366
    12  H    0.177789
 Sum of Mulliken charges =  -0.00000
 Mulliken charges with hydrogens summed into heavy atoms:
               1
     1  C    0.011224
     5  C    0.751474
     6  O   -0.631176
     7  N   -0.395615
     9  C    0.264093
 Electronic spatial extent (au):  <R**2>=            455.7516
 Charge=              0.0000 electrons
 Dipole moment (field-independent basis, Debye):
    X=              3.8970    Y=              1.9765    Z=             -0.0246  Tot=              4.3697
 Quadrupole moment (field-independent basis, Debye-Ang):
   XX=            -33.4511   YY=            -29.7981   ZZ=            -31.0467
   XY=             -5.4264   XZ=             -0.0605   YZ=              0.0084
 Traceless Quadrupole moment (field-independent basis, Debye-Ang):
   XX=             -2.0191   YY=              1.6339   ZZ=              0.3853
   XY=             -5.4264   XZ=             -0.0605   YZ=              0.0084
 Octapole moment (field-independent basis, Debye-Ang**2):
  XXX=             14.1058  YYY=             -7.5086  ZZZ=             -0.1490  XYY=              5.0112
  XXY=              4.9555  XXZ=              0.1060  XZZ=             -2.5308  YZZ=              0.4407
  YYZ=             -0.0190  XYZ=              0.0692
 Hexadecapole moment (field-independent basis, Debye-Ang**3):
 XXXX=           -360.1796 YYYY=           -174.9610 ZZZZ=            -41.4652 XXXY=            -13.5786
 XXXZ=             -0.3207 YYYX=             -7.0255 YYYZ=              0.0210 ZZZX=              0.0628
 ZZZY=             -0.1325 XXYY=            -90.1749 XXZZ=            -65.0508 YYZZ=            -36.7835
 XXYZ=              0.1616 YYXZ=              0.0266 ZZXY=              0.4491
 N-N= 1.792698557855D+02 E-N=-9.372483945026D+02  KE= 2.463405585019D+02
 1\1\GINC-ESPERANTO\Scan\RMP2-FC\6-31G(d)\C3H7N1O1\BM543\13-Sep-2018\0\
 \# opt=modredundant MP2/6-31g(d)\\Title\\0,1\C,-0.6794738432,-1.407774
 8807,-0.2207673098\H,-1.5226384053,-1.5553099195,0.4581042363\H,0.2014
 176663,-1.9008826116,0.1903000998\H,-0.9412772164,-1.8749526267,-1.172
 5749937\C,-0.5194775254,0.0802951592,-0.459013376\O,-1.4278201857,0.74
 82169002,-0.9578095497\N,0.6686895353,0.6573773107,-0.1020955872\H,0.6
 959783094,1.6535470831,-0.2839392779\C,1.8230515662,0.0284876293,0.514
 3182523\H,2.5794558323,0.7988021557,0.6706965103\H,1.5822325333,-0.409
 5276122,1.4876061935\H,2.2585217332,-0.7453585876,-0.1247851979\\Versi
 on=EM64L-G09RevE.01\State=1-A\HF=-246.9993727,-246.9991877,-246.998773
 3,-246.9983065,-246.998114,-246.9982233,-246.9986724,-246.9991578,-246
 .9993209,-246.9989706,-246.9986695,-246.9982213,-246.9981144\MP2=-247.
 7257909,-247.725692,-247.725104,-247.7245215,-247.7242175,-247.7244109
 ,-247.7249939,-247.7256422,-247.7259661,-247.7256235,-247.7249904,-247
 .7244086,-247.7242179\RMSD=8.771e-09,5.552e-09,6.078e-09,3.373e-09,8.6
 58e-09,5.275e-09,4.485e-09,7.157e-09,4.810e-09,6.855e-09,5.170e-09,5.4
 36e-09,9.944e-09\PG=C01 [X(C3H7N1O1)]\\@


 THE LENGTH OF A MEETING IS PROPORTIONAL TO THE
 SQUARE OF THE PARTICIPANTS.
 Job cpu time:       0 days  2 hours 59 minutes 38.0 seconds.
 File lengths (MBytes):  RWF=      7 Int=      0 D2E=      0 Chk=      3 Scr=      1
 Normal termination of Gaussian 09 at Thu Sep 13 12:43:56 2018.
