 Entering Gaussian System, Link 0=g09
 Input=nma.com
 Output=nma3.log
 Initial command:
 /usr/local/shared/gaussian/amd64/09-E01/g09/l1.exe "/scratch/bm543/Gau-6626.inp" -scrdir="/scratch/bm543/"
 Entering Link 1 = /usr/local/shared/gaussian/amd64/09-E01/g09/l1.exe PID=      6633.
  
 Copyright (c) 1988,1990,1992,1993,1995,1998,2003,2009,2015,
            Gaussian, Inc.  All Rights Reserved.
  
 This is part of the Gaussian(R) 09 program.  It is based on
 the Gaussian(R) 03 system (copyright 2003, Gaussian, Inc.),
 the Gaussian(R) 98 system (copyright 1998, Gaussian, Inc.),
 the Gaussian(R) 94 system (copyright 1995, Gaussian, Inc.),
 the Gaussian 92(TM) system (copyright 1992, Gaussian, Inc.),
 the Gaussian 90(TM) system (copyright 1990, Gaussian, Inc.),
 the Gaussian 88(TM) system (copyright 1988, Gaussian, Inc.),
 the Gaussian 86(TM) system (copyright 1986, Carnegie Mellon
 University), and the Gaussian 82(TM) system (copyright 1983,
 Carnegie Mellon University). Gaussian is a federally registered
 trademark of Gaussian, Inc.
  
 This software contains proprietary and confidential information,
 including trade secrets, belonging to Gaussian, Inc.
  
 This software is provided under written license and may be
 used, copied, transmitted, or stored only in accord with that
 written license.
  
 The following legend is applicable only to US Government
 contracts under FAR:
  
                    RESTRICTED RIGHTS LEGEND
  
 Use, reproduction and disclosure by the US Government is
 subject to restrictions as set forth in subparagraphs (a)
 and (c) of the Commercial Computer Software - Restricted
 Rights clause in FAR 52.227-19.
  
 Gaussian, Inc.
 340 Quinnipiac St., Bldg. 40, Wallingford CT 06492
  
  
 ---------------------------------------------------------------
 Warning -- This program may not be used in any manner that
 competes with the business of Gaussian, Inc. or will provide
 assistance to any competitor of Gaussian, Inc.  The licensee
 of this program is prohibited from giving any competitor of
 Gaussian, Inc. access to this program.  By using this program,
 the user acknowledges that Gaussian, Inc. is engaged in the
 business of creating and licensing software in the field of
 computational chemistry and represents and warrants to the
 licensee that it is not a competitor of Gaussian, Inc. and that
 it will not use this program in any manner prohibited above.
 ---------------------------------------------------------------
  

 Cite this work as:
 Gaussian 09, Revision E.01,
 M. J. Frisch, G. W. Trucks, H. B. Schlegel, G. E. Scuseria, 
 M. A. Robb, J. R. Cheeseman, G. Scalmani, V. Barone, B. Mennucci, 
 G. A. Petersson, H. Nakatsuji, M. Caricato, X. Li, H. P. Hratchian, 
 A. F. Izmaylov, J. Bloino, G. Zheng, J. L. Sonnenberg, M. Hada, 
 M. Ehara, K. Toyota, R. Fukuda, J. Hasegawa, M. Ishida, T. Nakajima, 
 Y. Honda, O. Kitao, H. Nakai, T. Vreven, J. A. Montgomery, Jr., 
 J. E. Peralta, F. Ogliaro, M. Bearpark, J. J. Heyd, E. Brothers, 
 K. N. Kudin, V. N. Staroverov, T. Keith, R. Kobayashi, J. Normand, 
 K. Raghavachari, A. Rendell, J. C. Burant, S. S. Iyengar, J. Tomasi, 
 M. Cossi, N. Rega, J. M. Millam, M. Klene, J. E. Knox, J. B. Cross, 
 V. Bakken, C. Adamo, J. Jaramillo, R. Gomperts, R. E. Stratmann, 
 O. Yazyev, A. J. Austin, R. Cammi, C. Pomelli, J. W. Ochterski, 
 R. L. Martin, K. Morokuma, V. G. Zakrzewski, G. A. Voth, 
 P. Salvador, J. J. Dannenberg, S. Dapprich, A. D. Daniels, 
 O. Farkas, J. B. Foresman, J. V. Ortiz, J. Cioslowski, 
 and D. J. Fox, Gaussian, Inc., Wallingford CT, 2013.
 
 ******************************************
 Gaussian 09:  EM64L-G09RevE.01 30-Nov-2015
                13-Sep-2018 
 ******************************************
 %NProcShared=8
 Will use up to    8 processors via shared memory.
 -------------------------------
 # opt=modredundant MP2/6-31g(d)
 -------------------------------
 1/18=120,19=15,38=1/1,3;
 2/9=110,12=2,17=6,18=5,40=1/2;
 3/5=1,6=6,7=1,11=9,16=1,25=1,30=1,71=1/1,2,3;
 4//1;
 5/5=2,38=5/2;
 8/6=4,10=2/1;
 9/15=2,16=-3/6;
 10/5=1/2;
 6/7=2,8=2,9=2,10=2/1;
 7/12=2/1,2,3,16;
 1/18=20,19=15/3(2);
 2/9=110/2;
 99//99;
 2/9=110/2;
 3/5=1,6=6,7=1,11=9,16=1,25=1,30=1,71=1/1,2,3;
 4/5=5,16=3,69=1/1;
 5/5=2,38=5/2;
 8/6=4,10=2/1;
 9/15=2,16=-3/6;
 10/5=1/2;
 7/12=2/1,2,3,16;
 1/18=20,19=15/3(-8);
 2/9=110/2;
 6/7=2,8=2,9=2,10=2/1;
 99//99;
 -----
 Title
 -----
 Symbolic Z-matrix:
 Charge =  0 Multiplicity = 1
 C                    -0.71067  -1.35724  -0.00002 
 H                    -0.22497  -1.78239  -0.88352 
 H                    -1.76514  -1.62985  -0.00078 
 H                    -0.22635  -1.78225   0.88432 
 C                    -0.62381   0.15466  -0.00001 
 O                    -1.61974   0.88102   0.00001 
 N                     0.64105   0.67884   0. 
 H                     0.66527   1.69106  -0.00013 
 C                     1.88911  -0.06005   0. 
 H                     2.70865   0.65965   0.00137 
 H                     1.99199  -0.6912    0.88848 
 H                     1.99327  -0.68933  -0.88968 
 
 The following ModRedundant input section has been read:
 D       5       7       9      10 S  12 -15.00                                
 

 GradGradGradGradGradGradGradGradGradGradGradGradGradGradGradGradGradGrad
 Berny optimization.
 Initialization pass.
                           ----------------------------
                           !    Initial Parameters    !
                           ! (Angstroms and Degrees)  !
 --------------------------                            --------------------------
 ! Name  Definition              Value          Derivative Info.                !
 --------------------------------------------------------------------------------
 ! R1    R(1,2)                  1.0942         estimate D2E/DX2                !
 ! R2    R(1,3)                  1.0891         estimate D2E/DX2                !
 ! R3    R(1,4)                  1.0942         estimate D2E/DX2                !
 ! R4    R(1,5)                  1.5144         estimate D2E/DX2                !
 ! R5    R(5,6)                  1.2327         estimate D2E/DX2                !
 ! R6    R(5,7)                  1.3692         estimate D2E/DX2                !
 ! R7    R(7,8)                  1.0125         estimate D2E/DX2                !
 ! R8    R(7,9)                  1.4504         estimate D2E/DX2                !
 ! R9    R(9,10)                 1.0907         estimate D2E/DX2                !
 ! R10   R(9,11)                 1.0947         estimate D2E/DX2                !
 ! R11   R(9,12)                 1.0947         estimate D2E/DX2                !
 ! A1    A(2,1,3)              109.3869         estimate D2E/DX2                !
 ! A2    A(2,1,4)              107.7696         estimate D2E/DX2                !
 ! A3    A(2,1,5)              111.2514         estimate D2E/DX2                !
 ! A4    A(3,1,4)              109.383          estimate D2E/DX2                !
 ! A5    A(3,1,5)              107.7833         estimate D2E/DX2                !
 ! A6    A(4,1,5)              111.2471         estimate D2E/DX2                !
 ! A7    A(1,5,6)              122.8163         estimate D2E/DX2                !
 ! A8    A(1,5,7)              115.798          estimate D2E/DX2                !
 ! A9    A(6,5,7)              121.3857         estimate D2E/DX2                !
 ! A10   A(5,7,8)              113.8807         estimate D2E/DX2                !
 ! A11   A(5,7,9)              126.8632         estimate D2E/DX2                !
 ! A12   A(8,7,9)              119.2562         estimate D2E/DX2                !
 ! A13   A(7,9,10)             108.0843         estimate D2E/DX2                !
 ! A14   A(7,9,11)             111.9994         estimate D2E/DX2                !
 ! A15   A(7,9,12)             112.0074         estimate D2E/DX2                !
 ! A16   A(10,9,11)            107.9875         estimate D2E/DX2                !
 ! A17   A(10,9,12)            107.9892         estimate D2E/DX2                !
 ! A18   A(11,9,12)            108.6177         estimate D2E/DX2                !
 ! D1    D(2,1,5,6)            119.9618         estimate D2E/DX2                !
 ! D2    D(2,1,5,7)            -60.0393         estimate D2E/DX2                !
 ! D3    D(3,1,5,6)              0.0427         estimate D2E/DX2                !
 ! D4    D(3,1,5,7)           -179.9584         estimate D2E/DX2                !
 ! D5    D(4,1,5,6)           -119.8689         estimate D2E/DX2                !
 ! D6    D(4,1,5,7)             60.1299         estimate D2E/DX2                !
 ! D7    D(1,5,7,8)            179.9916         estimate D2E/DX2                !
 ! D8    D(1,5,7,9)              0.0001         estimate D2E/DX2                !
 ! D9    D(6,5,7,8)             -0.0096         estimate D2E/DX2                !
 ! D10   D(6,5,7,9)            179.999          estimate D2E/DX2                !
 ! D11   D(5,7,9,10)          -179.9248         Scan                            !
 ! D12   D(5,7,9,11)           -61.0893         estimate D2E/DX2                !
 ! D13   D(5,7,9,12)            61.2327         estimate D2E/DX2                !
 ! D14   D(8,7,9,10)             0.0841         estimate D2E/DX2                !
 ! D15   D(8,7,9,11)           118.9197         estimate D2E/DX2                !
 ! D16   D(8,7,9,12)          -118.7583         estimate D2E/DX2                !
 --------------------------------------------------------------------------------
 Trust Radius=3.00D-01 FncErr=1.00D-07 GrdErr=1.00D-07
 Number of optimizations in scan=  13
 Number of steps in this run=     55 maximum allowed number of steps=    100.
 GradGradGradGradGradGradGradGradGradGradGradGradGradGradGradGradGradGrad

                          Input orientation:                          
 ---------------------------------------------------------------------
 Center     Atomic      Atomic             Coordinates (Angstroms)
 Number     Number       Type             X           Y           Z
 ---------------------------------------------------------------------
      1          6           0       -0.710670   -1.357240   -0.000020
      2          1           0       -0.224970   -1.782390   -0.883520
      3          1           0       -1.765140   -1.629850   -0.000780
      4          1           0       -0.226350   -1.782250    0.884320
      5          6           0       -0.623810    0.154660   -0.000010
      6          8           0       -1.619740    0.881020    0.000010
      7          7           0        0.641050    0.678840    0.000000
      8          1           0        0.665270    1.691060   -0.000130
      9          6           0        1.889110   -0.060050    0.000000
     10          1           0        2.708650    0.659650    0.001370
     11          1           0        1.991990   -0.691200    0.888480
     12          1           0        1.993270   -0.689330   -0.889680
 ---------------------------------------------------------------------
                    Distance matrix (angstroms):
                    1          2          3          4          5
     1  C    0.000000
     2  H    1.094180   0.000000
     3  H    1.089139   1.781747   0.000000
     4  H    1.094192   1.767841   1.781713   0.000000
     5  C    1.514393   2.166062   2.118280   2.166018   0.000000
     6  O    2.415826   3.133650   2.515077   3.133137   1.232670
     7  N    2.443925   2.754678   3.334636   2.755244   1.369173
     8  H    3.344450   3.692934   4.115257   3.693389   2.005555
     9  C    2.905436   2.866426   3.977162   2.867606   2.522076
    10  H    3.969836   3.918254   5.025596   3.918763   3.370505
    11  H    2.921885   3.040656   3.973396   2.472133   2.889170
    12  H    2.923849   2.472935   3.974968   3.044382   2.890145
                    6          7          8          9         10
     6  O    0.000000
     7  N    2.269812   0.000000
     8  H    2.424342   1.012510   0.000000
     9  C    3.632856   1.450383   2.136392   0.000000
    10  H    4.334047   2.067690   2.288932   1.090695   0.000000
    11  H    4.038050   2.119303   2.867922   1.094683   1.767869
    12  H    4.038736   2.119415   2.867253   1.094702   1.767904
                   11         12
    11  H    0.000000
    12  H    1.778161   0.000000
 Stoichiometry    C3H7NO
 Framework group  C1[X(C3H7NO)]
 Deg. of freedom    30
 Full point group                 C1      NOp   1
 Largest Abelian subgroup         C1      NOp   1
 Largest concise Abelian subgroup C1      NOp   1
                         Standard orientation:                         
 ---------------------------------------------------------------------
 Center     Atomic      Atomic             Coordinates (Angstroms)
 Number     Number       Type             X           Y           Z
 ---------------------------------------------------------------------
      1          6           0       -0.710668    1.357239    0.000019
      2          1           0       -0.224968    1.782389    0.883519
      3          1           0       -1.765138    1.629849    0.000779
      4          1           0       -0.226348    1.782249   -0.884321
      5          6           0       -0.623808   -0.154661    0.000009
      6          8           0       -1.619739   -0.881021   -0.000011
      7          7           0        0.641051   -0.678842   -0.000001
      8          1           0        0.665271   -1.691062    0.000129
      9          6           0        1.889112    0.060048   -0.000001
     10          1           0        2.708651   -0.659652   -0.001371
     11          1           0        1.991992    0.691198   -0.888481
     12          1           0        1.993272    0.689328    0.889679
 ---------------------------------------------------------------------
 Rotational constants (GHZ):      8.8036882      4.0967769      2.8973302
 Standard basis: 6-31G(d) (6D, 7F)
 There are    89 symmetry adapted cartesian basis functions of A   symmetry.
 There are    89 symmetry adapted basis functions of A   symmetry.
    89 basis functions,   168 primitive gaussians,    89 cartesian basis functions
    20 alpha electrons       20 beta electrons
       nuclear repulsion energy       179.6864625742 Hartrees.
 NAtoms=   12 NActive=   12 NUniq=   12 SFac= 1.00D+00 NAtFMM=   60 NAOKFM=F Big=F
 Integral buffers will be    131072 words long.
 Raffenetti 1 integral format.
 Two-electron integral symmetry is turned on.
 One-electron integrals computed using PRISM.
 NBasis=    89 RedAO= T EigKep=  3.73D-03  NBF=    89
 NBsUse=    89 1.00D-06 EigRej= -1.00D+00 NBFU=    89
 ExpMin= 1.61D-01 ExpMax= 5.48D+03 ExpMxC= 8.25D+02 IAcc=1 IRadAn=         1 AccDes= 0.00D+00
 Harris functional with IExCor=  205 and IRadAn=       1 diagonalized for initial guess.
 HarFok:  IExCor=  205 AccDes= 0.00D+00 IRadAn=         1 IDoV= 1 UseB2=F ITyADJ=14
 ICtDFT=  3500011 ScaDFX=  1.000000  1.000000  1.000000  1.000000
 FoFCou: FMM=F IPFlag=           0 FMFlag=      100000 FMFlg1=           0
         NFxFlg=           0 DoJE=T BraDBF=F KetDBF=T FulRan=T
         wScrn=  0.000000 ICntrl=     500 IOpCl=  0 I1Cent=   200000004 NGrid=           0
         NMat0=    1 NMatS0=      1 NMatT0=    0 NMatD0=    1 NMtDS0=    0 NMtDT0=    0
 Petite list used in FoFCou.
 Keep R1 ints in memory in canonical form, NReq=8933623.
 Requested convergence on RMS density matrix=1.00D-08 within 128 cycles.
 Requested convergence on MAX density matrix=1.00D-06.
 Requested convergence on             energy=1.00D-06.
 No special actions if energy rises.
 SCF Done:  E(RHF) =  -246.999372734     A.U. after   13 cycles
            NFock= 13  Conv=0.88D-08     -V/T= 2.0027
 ExpMin= 1.61D-01 ExpMax= 5.48D+03 ExpMxC= 8.25D+02 IAcc=3 IRadAn=         5 AccDes= 0.00D+00
 HarFok:  IExCor=  205 AccDes= 0.00D+00 IRadAn=         5 IDoV=-2 UseB2=F ITyADJ=14
 ICtDFT= 12500011 ScaDFX=  1.000000  1.000000  1.000000  1.000000
 Range of M.O.s used for correlation:     6    89
 NBasis=    89 NAE=    20 NBE=    20 NFC=     5 NFV=     0
 NROrb=     84 NOA=    15 NOB=    15 NVA=    69 NVB=    69
 Fully direct method using O(ONN) memory.
 JobTyp=1 Pass  1:  I=   6 to  16 NPSUse=  2 ParTrn=F ParDer=T DoDerP=T.
 JobTyp=1 Pass  2:  I=  17 to  20 NPSUse=  2 ParTrn=F ParDer=T DoDerP=T.
 Spin components of T(2) and E(2):
     alpha-alpha T2 =       0.2925724840D-01 E2=     -0.9293202927D-01
     alpha-beta  T2 =       0.1692526988D+00 E2=     -0.5405540946D+00
     beta-beta   T2 =       0.2925724840D-01 E2=     -0.9293202927D-01
 ANorm=    0.1108046567D+01
 E2 =    -0.7264181532D+00 EUMP2 =    -0.24772579088761D+03
          IDoAtm=111111111111
          Differentiating once with respect to electric field.
                with respect to dipole field.
          Differentiating once with respect to nuclear coordinates.
 Keep R1 ints in memory in canonical form, NReq=8909730.
          There are     1 degrees of freedom in the 1st order CPHF.  IDoFFX=0 NUNeed=     1.
 LinEq1:  Iter=  0 NonCon=     1 RMS=6.59D-03 Max=1.26D-01 NDo=     1
 AX will form     1 AO Fock derivatives at one time.
 LinEq1:  Iter=  1 NonCon=     1 RMS=2.38D-03 Max=3.59D-02 NDo=     1
 LinEq1:  Iter=  2 NonCon=     1 RMS=7.54D-04 Max=9.84D-03 NDo=     1
 LinEq1:  Iter=  3 NonCon=     1 RMS=3.36D-04 Max=5.40D-03 NDo=     1
 LinEq1:  Iter=  4 NonCon=     1 RMS=6.47D-05 Max=5.83D-04 NDo=     1
 LinEq1:  Iter=  5 NonCon=     1 RMS=2.48D-05 Max=3.30D-04 NDo=     1
 LinEq1:  Iter=  6 NonCon=     1 RMS=6.57D-06 Max=8.65D-05 NDo=     1
 LinEq1:  Iter=  7 NonCon=     1 RMS=1.60D-06 Max=2.00D-05 NDo=     1
 LinEq1:  Iter=  8 NonCon=     1 RMS=4.37D-07 Max=5.60D-06 NDo=     1
 LinEq1:  Iter=  9 NonCon=     1 RMS=1.24D-07 Max=9.91D-07 NDo=     1
 LinEq1:  Iter= 10 NonCon=     1 RMS=3.16D-08 Max=2.70D-07 NDo=     1
 LinEq1:  Iter= 11 NonCon=     1 RMS=6.03D-09 Max=5.01D-08 NDo=     1
 LinEq1:  Iter= 12 NonCon=     1 RMS=1.49D-09 Max=1.33D-08 NDo=     1
 LinEq1:  Iter= 13 NonCon=     1 RMS=3.85D-10 Max=2.23D-09 NDo=     1
 LinEq1:  Iter= 14 NonCon=     0 RMS=5.85D-11 Max=4.02D-10 NDo=     1
 Linear equations converged to 1.000D-10 1.000D-09 after    14 iterations.
 End of Minotr F.D. properties file   721 does not exist.
 End of Minotr F.D. properties file   722 does not exist.
 End of Minotr F.D. properties file   788 does not exist.

 **********************************************************************

            Population analysis using the SCF density.

 **********************************************************************

 Orbital symmetries:
       Occupied  (A) (A) (A) (A) (A) (A) (A) (A) (A) (A) (A) (A)
                 (A) (A) (A) (A) (A) (A) (A) (A)
       Virtual   (A) (A) (A) (A) (A) (A) (A) (A) (A) (A) (A) (A)
                 (A) (A) (A) (A) (A) (A) (A) (A) (A) (A) (A) (A)
                 (A) (A) (A) (A) (A) (A) (A) (A) (A) (A) (A) (A)
                 (A) (A) (A) (A) (A) (A) (A) (A) (A) (A) (A) (A)
                 (A) (A) (A) (A) (A) (A) (A) (A) (A) (A) (A) (A)
                 (A) (A) (A) (A) (A) (A) (A) (A) (A)
 The electronic state is 1-A.
 Alpha  occ. eigenvalues --  -20.51496 -15.58584 -11.34961 -11.27808 -11.23560
 Alpha  occ. eigenvalues --   -1.36199  -1.22379  -1.00497  -0.95429  -0.77935
 Alpha  occ. eigenvalues --   -0.67055  -0.66181  -0.63901  -0.58059  -0.57315
 Alpha  occ. eigenvalues --   -0.55877  -0.55329  -0.50690  -0.41138  -0.38090
 Alpha virt. eigenvalues --    0.20089   0.21328   0.23658   0.27016   0.29337
 Alpha virt. eigenvalues --    0.30926   0.32613   0.36457   0.39746   0.41922
 Alpha virt. eigenvalues --    0.49234   0.57952   0.68375   0.72631   0.73222
 Alpha virt. eigenvalues --    0.78550   0.82823   0.84891   0.86494   0.94794
 Alpha virt. eigenvalues --    0.98695   1.04082   1.06155   1.08283   1.10283
 Alpha virt. eigenvalues --    1.12687   1.14877   1.16284   1.17120   1.19510
 Alpha virt. eigenvalues --    1.22481   1.25236   1.30904   1.34334   1.37266
 Alpha virt. eigenvalues --    1.59412   1.62857   1.63198   1.67663   1.75937
 Alpha virt. eigenvalues --    1.82254   1.89240   2.05462   2.07002   2.11620
 Alpha virt. eigenvalues --    2.19991   2.22045   2.26587   2.30373   2.38895
 Alpha virt. eigenvalues --    2.39502   2.44222   2.45749   2.60132   2.60238
 Alpha virt. eigenvalues --    2.64370   2.79356   2.85601   2.87778   2.97259
 Alpha virt. eigenvalues --    2.97559   3.25227   3.35960   3.48256   4.31989
 Alpha virt. eigenvalues --    4.41447   4.60829   4.71554   4.90703
          Condensed to atoms (all electrons):
               1          2          3          4          5          6
     1  C    5.311142   0.372620   0.382104   0.372631   0.352714  -0.074556
     2  H    0.372620   0.509212  -0.017990  -0.026120  -0.027886   0.001238
     3  H    0.382104  -0.017990   0.457596  -0.017982  -0.032078   0.004451
     4  H    0.372631  -0.026120  -0.017982   0.509155  -0.027884   0.001233
     5  C    0.352714  -0.027886  -0.032078  -0.027884   4.117040   0.612920
     6  O   -0.074556   0.001238   0.004451   0.001233   0.612920   8.166561
     7  N   -0.118997   0.001973   0.004150   0.001973   0.291425  -0.096821
     8  H    0.005425  -0.000171  -0.000123  -0.000171  -0.013388   0.007314
     9  C   -0.006768  -0.001516   0.000075  -0.001520  -0.020908   0.002163
    10  H    0.000070   0.000044   0.000001   0.000044   0.001477  -0.000060
    11  H   -0.000608  -0.000334  -0.000003   0.001082  -0.001386   0.000025
    12  H   -0.000605   0.001079  -0.000003  -0.000328  -0.001380   0.000025
               7          8          9         10         11         12
     1  C   -0.118997   0.005425  -0.006768   0.000070  -0.000608  -0.000605
     2  H    0.001973  -0.000171  -0.001516   0.000044  -0.000334   0.001079
     3  H    0.004150  -0.000123   0.000075   0.000001  -0.000003  -0.000003
     4  H    0.001973  -0.000171  -0.001520   0.000044   0.001082  -0.000328
     5  C    0.291425  -0.013388  -0.020908   0.001477  -0.001386  -0.001380
     6  O   -0.096821   0.007314   0.002163  -0.000060   0.000025   0.000025
     7  N    7.314924   0.312033   0.201158  -0.031616  -0.048242  -0.048271
     8  H    0.312033   0.317402  -0.021876  -0.005078   0.001793   0.001789
     9  C    0.201158  -0.021876   4.920542   0.400810   0.400764   0.400754
    10  H   -0.031616  -0.005078   0.400810   0.497988  -0.025415  -0.025452
    11  H   -0.048242   0.001793   0.400764  -0.025415   0.537917  -0.040564
    12  H   -0.048271   0.001789   0.400754  -0.025452  -0.040564   0.538011
 Mulliken charges:
               1
     1  C   -0.595169
     2  H    0.187851
     3  H    0.219800
     4  H    0.187887
     5  C    0.749334
     6  O   -0.624491
     7  N   -0.783688
     8  H    0.395051
     9  C   -0.273678
    10  H    0.187187
    11  H    0.174970
    12  H    0.174945
 Sum of Mulliken charges =  -0.00000
 Mulliken charges with hydrogens summed into heavy atoms:
               1
     1  C    0.000370
     5  C    0.749334
     6  O   -0.624491
     7  N   -0.388637
     9  C    0.263425
 Electronic spatial extent (au):  <R**2>=            451.1388
 Charge=             -0.0000 electrons
 Dipole moment (field-independent basis, Debye):
    X=              4.0160    Y=              1.8134    Z=             -0.0001  Tot=              4.4064
 Quadrupole moment (field-independent basis, Debye-Ang):
   XX=            -34.0068   YY=            -29.4312   ZZ=            -31.1701
   XY=             -5.0965   XZ=             -0.0007   YZ=             -0.0008
 Traceless Quadrupole moment (field-independent basis, Debye-Ang):
   XX=             -2.4708   YY=              2.1049   ZZ=              0.3659
   XY=             -5.0965   XZ=             -0.0007   YZ=             -0.0008
 Octapole moment (field-independent basis, Debye-Ang**2):
  XXX=             13.3467  YYY=             -8.2282  ZZZ=             -0.0001  XYY=              4.5512
  XXY=              4.5405  XXZ=             -0.0006  XZZ=             -1.1806  YZZ=              0.4589
  YYZ=             -0.0013  XYZ=              0.0006
 Hexadecapole moment (field-independent basis, Debye-Ang**3):
 XXXX=           -351.5325 YYYY=           -174.3749 ZZZZ=            -41.9401 XXXY=            -15.5152
 XXXZ=             -0.0119 YYYX=             -6.7382 YYYZ=             -0.0038 ZZZX=              0.0047
 ZZZY=             -0.0033 XXYY=            -89.2077 XXZZ=            -66.3142 YYZZ=            -36.6267
 XXYZ=              0.0068 YYXZ=             -0.0028 ZZXY=              2.9504
 N-N= 1.796864625742D+02 E-N=-9.380616895228D+02  KE= 2.463396939644D+02
 Calling FoFJK, ICntrl=  10002127 FMM=F ISym2X=0 I1Cent= 0 IOpClX= 0 NMat=1 NMatS=1 NMatT=0.
 ***** Axes restored to original set *****
 -------------------------------------------------------------------
 Center     Atomic                   Forces (Hartrees/Bohr)
 Number     Number              X              Y              Z
 -------------------------------------------------------------------
      1        6           0.000008526   -0.000005213    0.000006979
      2        1          -0.000001493    0.000000660    0.000000502
      3        1          -0.000004423   -0.000000979    0.000000038
      4        1          -0.000003320    0.000002728   -0.000004259
      5        6           0.000000659   -0.000000101   -0.000007236
      6        8          -0.000001896    0.000001283   -0.000000515
      7        7           0.000002198    0.000001668    0.000008776
      8        1           0.000000429   -0.000001979    0.000000300
      9        6           0.000002275    0.000005050   -0.000004685
     10        1          -0.000002435   -0.000003144    0.000000246
     11        1          -0.000000184    0.000000447    0.000000382
     12        1          -0.000000338   -0.000000420   -0.000000529
 -------------------------------------------------------------------
 Cartesian Forces:  Max     0.000008776 RMS     0.000003437

 GradGradGradGradGradGradGradGradGradGradGradGradGradGradGradGradGradGrad
 Berny optimization.
 FormGI is forming the generalized inverse of G from B-inverse, IUseBI=4.
 Internal  Forces:  Max     0.000005971 RMS     0.000001816
 Search for a local minimum.
 Step number   1 out of a maximum of   55 on scan point     1 out of    13
 All quantities printed in internal units (Hartrees-Bohrs-Radians)
 Mixed Optimization -- En-DIIS/RFO-DIIS
 Second derivative matrix not updated -- first step.
 ITU=  0
     Eigenvalues ---    0.00576   0.01174   0.01271   0.02100   0.05047
     Eigenvalues ---    0.07135   0.07179   0.07469   0.16000   0.16000
     Eigenvalues ---    0.16000   0.16000   0.16000   0.16000   0.16000
     Eigenvalues ---    0.22000   0.25000   0.25000   0.30913   0.34275
     Eigenvalues ---    0.34277   0.34333   0.34334   0.34732   0.34912
     Eigenvalues ---    0.38195   0.45555   0.51136   0.899831000.00000
     Eigenvalues --- 1000.000001000.000001000.000001000.000001000.00000
     Eigenvalues --- 1000.000001000.000001000.000001000.000001000.00000
     Eigenvalues --- 1000.000001000.000001000.000001000.000001000.00000
 RFO step:  Lambda= 0.00000000D+00 EMin= 5.75555155D-03
 Linear search not attempted -- first point.
 Iteration  1 RMS(Cart)=  0.00008935 RMS(Int)=  0.00000000
 Iteration  2 RMS(Cart)=  0.00000001 RMS(Int)=  0.00000000
 Iteration  1 RMS(Cart)=  0.00000000 RMS(Int)=  0.00000000
 Variable       Old X    -DE/DX   Delta X   Delta X   Delta X     New X
                                 (Linear)    (Quad)   (Total)
    R1        2.06770  -0.00000   0.00000  -0.00000  -0.00000   2.06770
    R2        2.05817   0.00000   0.00000   0.00001   0.00001   2.05819
    R3        2.06772  -0.00001   0.00000  -0.00002  -0.00002   2.06771
    R4        2.86179   0.00000   0.00000   0.00001   0.00001   2.86180
    R5        2.32941   0.00000   0.00000   0.00000   0.00000   2.32941
    R6        2.58736   0.00000   0.00000   0.00000   0.00000   2.58737
    R7        1.91337  -0.00000   0.00000  -0.00000  -0.00000   1.91336
    R8        2.74083  -0.00000   0.00000  -0.00000  -0.00000   2.74082
    R9        2.06112  -0.00000   0.00000  -0.00001  -0.00001   2.06110
   R10        2.06865   0.00000   0.00000   0.00000   0.00000   2.06865
   R11        2.06869   0.00000   0.00000   0.00000   0.00000   2.06869
    A1        1.90916  -0.00000   0.00000  -0.00000  -0.00000   1.90916
    A2        1.88093   0.00000   0.00000   0.00001   0.00001   1.88095
    A3        1.94170   0.00000   0.00000   0.00000   0.00000   1.94171
    A4        1.90909  -0.00000   0.00000  -0.00000  -0.00000   1.90909
    A5        1.88117  -0.00000   0.00000  -0.00001  -0.00001   1.88117
    A6        1.94163  -0.00000   0.00000  -0.00000  -0.00000   1.94163
    A7        2.14355  -0.00000   0.00000  -0.00000  -0.00000   2.14354
    A8        2.02106   0.00000   0.00000   0.00001   0.00001   2.02106
    A9        2.11858  -0.00000   0.00000  -0.00000  -0.00000   2.11858
   A10        1.98759   0.00000   0.00000   0.00000   0.00000   1.98759
   A11        2.21418   0.00000   0.00000   0.00000   0.00000   2.21418
   A12        2.08141  -0.00000   0.00000  -0.00000  -0.00000   2.08141
   A13        1.88643   0.00000   0.00000   0.00001   0.00001   1.88644
   A14        1.95476  -0.00000   0.00000  -0.00001  -0.00001   1.95475
   A15        1.95490  -0.00000   0.00000   0.00000   0.00000   1.95490
   A16        1.88474  -0.00000   0.00000  -0.00001  -0.00001   1.88473
   A17        1.88477  -0.00000   0.00000   0.00001   0.00001   1.88478
   A18        1.89574   0.00000   0.00000   0.00000   0.00000   1.89574
    D1        2.09373   0.00000   0.00000   0.00005   0.00005   2.09378
    D2       -1.04788  -0.00000   0.00000  -0.00009  -0.00009  -1.04797
    D3        0.00075   0.00000   0.00000   0.00006   0.00006   0.00080
    D4       -3.14087  -0.00000   0.00000  -0.00008  -0.00008  -3.14095
    D5       -2.09211   0.00000   0.00000   0.00006   0.00006  -2.09204
    D6        1.04946  -0.00000   0.00000  -0.00007  -0.00007   1.04939
    D7        3.14145   0.00000   0.00000   0.00014   0.00014   3.14159
    D8        0.00000   0.00000   0.00000   0.00022   0.00022   0.00023
    D9       -0.00017   0.00000   0.00000   0.00001   0.00001  -0.00016
   D10        3.14157   0.00000   0.00000   0.00009   0.00009  -3.14152
   D11       -3.14028  -0.00000   0.00000   0.00000   0.00000  -3.14028
   D12       -1.06621  -0.00000   0.00000  -0.00001  -0.00001  -1.06622
   D13        1.06871  -0.00000   0.00000  -0.00002  -0.00002   1.06870
   D14        0.00147   0.00000   0.00000   0.00009   0.00009   0.00156
   D15        2.07554   0.00000   0.00000   0.00008   0.00008   2.07562
   D16       -2.07272   0.00000   0.00000   0.00007   0.00007  -2.07265
         Item               Value     Threshold  Converged?
 Maximum Force            0.000006     0.000450     YES
 RMS     Force            0.000002     0.000300     YES
 Maximum Displacement     0.000216     0.001800     YES
 RMS     Displacement     0.000089     0.001200     YES
 Predicted change in Energy=-1.195988D-09
 Optimization completed.
    -- Stationary point found.
                           ----------------------------
                           !   Optimized Parameters   !
                           ! (Angstroms and Degrees)  !
 --------------------------                            --------------------------
 ! Name  Definition              Value          Derivative Info.                !
 --------------------------------------------------------------------------------
 ! R1    R(1,2)                  1.0942         -DE/DX =    0.0                 !
 ! R2    R(1,3)                  1.0891         -DE/DX =    0.0                 !
 ! R3    R(1,4)                  1.0942         -DE/DX =    0.0                 !
 ! R4    R(1,5)                  1.5144         -DE/DX =    0.0                 !
 ! R5    R(5,6)                  1.2327         -DE/DX =    0.0                 !
 ! R6    R(5,7)                  1.3692         -DE/DX =    0.0                 !
 ! R7    R(7,8)                  1.0125         -DE/DX =    0.0                 !
 ! R8    R(7,9)                  1.4504         -DE/DX =    0.0                 !
 ! R9    R(9,10)                 1.0907         -DE/DX =    0.0                 !
 ! R10   R(9,11)                 1.0947         -DE/DX =    0.0                 !
 ! R11   R(9,12)                 1.0947         -DE/DX =    0.0                 !
 ! A1    A(2,1,3)              109.3869         -DE/DX =    0.0                 !
 ! A2    A(2,1,4)              107.7696         -DE/DX =    0.0                 !
 ! A3    A(2,1,5)              111.2514         -DE/DX =    0.0                 !
 ! A4    A(3,1,4)              109.383          -DE/DX =    0.0                 !
 ! A5    A(3,1,5)              107.7833         -DE/DX =    0.0                 !
 ! A6    A(4,1,5)              111.2471         -DE/DX =    0.0                 !
 ! A7    A(1,5,6)              122.8163         -DE/DX =    0.0                 !
 ! A8    A(1,5,7)              115.798          -DE/DX =    0.0                 !
 ! A9    A(6,5,7)              121.3857         -DE/DX =    0.0                 !
 ! A10   A(5,7,8)              113.8807         -DE/DX =    0.0                 !
 ! A11   A(5,7,9)              126.8632         -DE/DX =    0.0                 !
 ! A12   A(8,7,9)              119.2562         -DE/DX =    0.0                 !
 ! A13   A(7,9,10)             108.0843         -DE/DX =    0.0                 !
 ! A14   A(7,9,11)             111.9994         -DE/DX =    0.0                 !
 ! A15   A(7,9,12)             112.0074         -DE/DX =    0.0                 !
 ! A16   A(10,9,11)            107.9875         -DE/DX =    0.0                 !
 ! A17   A(10,9,12)            107.9892         -DE/DX =    0.0                 !
 ! A18   A(11,9,12)            108.6177         -DE/DX =    0.0                 !
 ! D1    D(2,1,5,6)            119.9618         -DE/DX =    0.0                 !
 ! D2    D(2,1,5,7)            -60.0393         -DE/DX =    0.0                 !
 ! D3    D(3,1,5,6)              0.0427         -DE/DX =    0.0                 !
 ! D4    D(3,1,5,7)           -179.9584         -DE/DX =    0.0                 !
 ! D5    D(4,1,5,6)           -119.8689         -DE/DX =    0.0                 !
 ! D6    D(4,1,5,7)             60.1299         -DE/DX =    0.0                 !
 ! D7    D(1,5,7,8)            179.9916         -DE/DX =    0.0                 !
 ! D8    D(1,5,7,9)              0.0001         -DE/DX =    0.0                 !
 ! D9    D(6,5,7,8)             -0.0096         -DE/DX =    0.0                 !
 ! D10   D(6,5,7,9)           -180.001          -DE/DX =    0.0                 !
 ! D11   D(5,7,9,10)          -179.9248         -DE/DX =    0.0                 !
 ! D12   D(5,7,9,11)           -61.0893         -DE/DX =    0.0                 !
 ! D13   D(5,7,9,12)            61.2327         -DE/DX =    0.0                 !
 ! D14   D(8,7,9,10)             0.0841         -DE/DX =    0.0                 !
 ! D15   D(8,7,9,11)           118.9197         -DE/DX =    0.0                 !
 ! D16   D(8,7,9,12)          -118.7583         -DE/DX =    0.0                 !
 --------------------------------------------------------------------------------
 Iteration  1 RMS(Cart)=  0.02329058 RMS(Int)=  0.02947642
 Iteration  2 RMS(Cart)=  0.00731223 RMS(Int)=  0.02879106
 Iteration  3 RMS(Cart)=  0.00024860 RMS(Int)=  0.02879051
 Iteration  4 RMS(Cart)=  0.00001384 RMS(Int)=  0.02879050
 Iteration  5 RMS(Cart)=  0.00000071 RMS(Int)=  0.02879050
 Iteration  1 RMS(Cart)=  0.01661953 RMS(Int)=  0.01564813
 Iteration  2 RMS(Cart)=  0.00906641 RMS(Int)=  0.01747300
 Iteration  3 RMS(Cart)=  0.00493120 RMS(Int)=  0.01972489
 Iteration  4 RMS(Cart)=  0.00267648 RMS(Int)=  0.02120138
 Iteration  5 RMS(Cart)=  0.00145086 RMS(Int)=  0.02206006
 Iteration  6 RMS(Cart)=  0.00078591 RMS(Int)=  0.02254011
 Iteration  7 RMS(Cart)=  0.00042555 RMS(Int)=  0.02280410
 Iteration  8 RMS(Cart)=  0.00023037 RMS(Int)=  0.02294816
 Iteration  9 RMS(Cart)=  0.00012469 RMS(Int)=  0.02302646
 Iteration 10 RMS(Cart)=  0.00006749 RMS(Int)=  0.02306894
 Iteration 11 RMS(Cart)=  0.00003653 RMS(Int)=  0.02309195
 Iteration 12 RMS(Cart)=  0.00001977 RMS(Int)=  0.02310442
 Iteration 13 RMS(Cart)=  0.00001070 RMS(Int)=  0.02311117
 Iteration 14 RMS(Cart)=  0.00000579 RMS(Int)=  0.02311482
 Iteration 15 RMS(Cart)=  0.00000313 RMS(Int)=  0.02311680
 Iteration 16 RMS(Cart)=  0.00000170 RMS(Int)=  0.02311787
 Iteration 17 RMS(Cart)=  0.00000092 RMS(Int)=  0.02311845
 GradGradGradGradGradGradGradGradGradGradGradGradGradGradGradGradGradGrad

                          Input orientation:                          
 ---------------------------------------------------------------------
 Center     Atomic      Atomic             Coordinates (Angstroms)
 Number     Number       Type             X           Y           Z
 ---------------------------------------------------------------------
      1          6           0       -0.707559   -1.356062   -0.011181
      2          1           0       -0.182926   -1.771890   -0.876768
      3          1           0       -1.760748   -1.629472   -0.061078
      4          1           0       -0.262074   -1.789600    0.889366
      5          6           0       -0.622570    0.155840    0.007861
      6          8           0       -1.618489    0.881383   -0.028574
      7          7           0        0.640543    0.680994    0.068896
      8          1           0        0.660980    1.692522    0.027464
      9          6           0        1.888943   -0.057106    0.050402
     10          1           0        2.700687    0.644477   -0.155150
     11          1           0        2.065894   -0.685354    0.929497
     12          1           0        1.915979   -0.692812   -0.840694
 ---------------------------------------------------------------------
                    Distance matrix (angstroms):
                    1          2          3          4          5
     1  C    0.000000
     2  H    1.094255   0.000000
     3  H    1.089243   1.781896   0.000000
     4  H    1.094256   1.767996   1.781855   0.000000
     5  C    1.514409   2.166103   2.118382   2.166044   0.000000
     6  O    2.415835   3.133710   2.515092   3.133149   1.232718
     7  N    2.444051   2.754818   3.334868   2.755308   1.369294
     8  H    3.341893   3.678582   4.111964   3.704062   2.002317
     9  C    2.903945   2.844780   3.975551   2.886567   2.520884
    10  H    3.954620   3.830769   5.008402   3.974129   3.362941
    11  H    3.004457   3.082263   4.063962   2.576898   2.963927
    12  H    2.830361   2.360321   3.873429   2.989978   2.807933
                    6          7          8          9         10
     6  O    0.000000
     7  N    2.269997   0.000000
     8  H    2.420137   1.012582   0.000000
     9  C    3.631677   1.450392   2.137666   0.000000
    10  H    4.327520   2.072612   2.300467   1.092428   0.000000
    11  H    4.116703   2.153872   2.905468   1.094904   1.829720
    12  H    3.953492   2.083611   2.831702   1.094945   1.695310
                   11         12
    11  H    0.000000
    12  H    1.776543   0.000000
 Stoichiometry    C3H7NO
 Framework group  C1[X(C3H7NO)]
 Deg. of freedom    30
 Full point group                 C1      NOp   1
 Largest Abelian subgroup         C1      NOp   1
 Largest concise Abelian subgroup C1      NOp   1
                         Standard orientation:                         
 ---------------------------------------------------------------------
 Center     Atomic      Atomic             Coordinates (Angstroms)
 Number     Number       Type             X           Y           Z
 ---------------------------------------------------------------------
      1          6           0       -0.706609    1.358134    0.002293
      2          1           0       -0.197304    1.777855    0.875125
      3          1           0       -1.760150    1.633180    0.031481
      4          1           0       -0.244131    1.786314   -0.892231
      5          6           0       -0.623408   -0.153958   -0.007222
      6          8           0       -1.620844   -0.877996    0.014819
      7          7           0        0.639872   -0.681077   -0.042381
      8          1           0        0.658128   -1.692397    0.004750
      9          6           0        1.888759    0.055479   -0.004952
     10          1           0        2.695625   -0.646066    0.219105
     11          1           0        2.082631    0.678831   -0.883964
     12          1           0        1.900395    0.695859    0.883126
 ---------------------------------------------------------------------
 Rotational constants (GHZ):      8.7995455      4.0999777      2.9003410
 Standard basis: 6-31G(d) (6D, 7F)
 There are    89 symmetry adapted cartesian basis functions of A   symmetry.
 There are    89 symmetry adapted basis functions of A   symmetry.
    89 basis functions,   168 primitive gaussians,    89 cartesian basis functions
    20 alpha electrons       20 beta electrons
       nuclear repulsion energy       179.7152045264 Hartrees.
 NAtoms=   12 NActive=   12 NUniq=   12 SFac= 1.00D+00 NAtFMM=   60 NAOKFM=F Big=F
 Integral buffers will be    131072 words long.
 Raffenetti 1 integral format.
 Two-electron integral symmetry is turned on.
 One-electron integrals computed using PRISM.
 NBasis=    89 RedAO= T EigKep=  3.74D-03  NBF=    89
 NBsUse=    89 1.00D-06 EigRej= -1.00D+00 NBFU=    89
 Initial guess from the checkpoint file:  "/scratch/bm543/Gau-6633.chk"
 B after Tr=    -0.000000   -0.000000   -0.000000
         Rot=    0.999998    0.000304    0.001704    0.000870 Ang=   0.22 deg.
 ExpMin= 1.61D-01 ExpMax= 5.48D+03 ExpMxC= 8.25D+02 IAcc=1 IRadAn=         1 AccDes= 0.00D+00
 Harris functional with IExCor=  205 and IRadAn=       1 diagonalized for initial guess.
 HarFok:  IExCor=  205 AccDes= 0.00D+00 IRadAn=         1 IDoV= 1 UseB2=F ITyADJ=14
 ICtDFT=  3500011 ScaDFX=  1.000000  1.000000  1.000000  1.000000
 FoFCou: FMM=F IPFlag=           0 FMFlag=      100000 FMFlg1=           0
         NFxFlg=           0 DoJE=T BraDBF=F KetDBF=T FulRan=T
         wScrn=  0.000000 ICntrl=     500 IOpCl=  0 I1Cent=   200000004 NGrid=           0
         NMat0=    1 NMatS0=      1 NMatT0=    0 NMatD0=    1 NMtDS0=    0 NMtDT0=    0
 Petite list used in FoFCou.
 Keep R1 ints in memory in canonical form, NReq=8933681.
 Requested convergence on RMS density matrix=1.00D-08 within 128 cycles.
 Requested convergence on MAX density matrix=1.00D-06.
 Requested convergence on             energy=1.00D-06.
 No special actions if energy rises.
 SCF Done:  E(RHF) =  -246.996804036     A.U. after   13 cycles
            NFock= 13  Conv=0.29D-08     -V/T= 2.0027
 ExpMin= 1.61D-01 ExpMax= 5.48D+03 ExpMxC= 8.25D+02 IAcc=3 IRadAn=         5 AccDes= 0.00D+00
 HarFok:  IExCor=  205 AccDes= 0.00D+00 IRadAn=         5 IDoV=-2 UseB2=F ITyADJ=14
 ICtDFT= 12500011 ScaDFX=  1.000000  1.000000  1.000000  1.000000
 Range of M.O.s used for correlation:     6    89
 NBasis=    89 NAE=    20 NBE=    20 NFC=     5 NFV=     0
 NROrb=     84 NOA=    15 NOB=    15 NVA=    69 NVB=    69
 Fully direct method using O(ONN) memory.
 JobTyp=1 Pass  1:  I=   6 to  16 NPSUse=  2 ParTrn=F ParDer=T DoDerP=T.
 JobTyp=1 Pass  2:  I=  17 to  20 NPSUse=  2 ParTrn=F ParDer=T DoDerP=T.
 Spin components of T(2) and E(2):
     alpha-alpha T2 =       0.2927813397D-01 E2=     -0.9297310148D-01
     alpha-beta  T2 =       0.1694002827D+00 E2=     -0.5407675491D+00
     beta-beta   T2 =       0.2927813397D-01 E2=     -0.9297310148D-01
 ANorm=    0.1108132010D+01
 E2 =    -0.7267137521D+00 EUMP2 =    -0.24772351778790D+03
          IDoAtm=111111111111
          Differentiating once with respect to electric field.
                with respect to dipole field.
          Differentiating once with respect to nuclear coordinates.
 Keep R1 ints in memory in canonical form, NReq=8909709.
          There are     1 degrees of freedom in the 1st order CPHF.  IDoFFX=0 NUNeed=     1.
 LinEq1:  Iter=  0 NonCon=     1 RMS=6.59D-03 Max=1.25D-01 NDo=     1
 AX will form     1 AO Fock derivatives at one time.
 LinEq1:  Iter=  1 NonCon=     1 RMS=2.38D-03 Max=3.59D-02 NDo=     1
 LinEq1:  Iter=  2 NonCon=     1 RMS=7.55D-04 Max=9.83D-03 NDo=     1
 LinEq1:  Iter=  3 NonCon=     1 RMS=3.37D-04 Max=5.40D-03 NDo=     1
 LinEq1:  Iter=  4 NonCon=     1 RMS=6.48D-05 Max=5.82D-04 NDo=     1
 LinEq1:  Iter=  5 NonCon=     1 RMS=2.48D-05 Max=3.28D-04 NDo=     1
 LinEq1:  Iter=  6 NonCon=     1 RMS=6.61D-06 Max=8.55D-05 NDo=     1
 LinEq1:  Iter=  7 NonCon=     1 RMS=1.62D-06 Max=1.95D-05 NDo=     1
 LinEq1:  Iter=  8 NonCon=     1 RMS=4.45D-07 Max=5.42D-06 NDo=     1
 LinEq1:  Iter=  9 NonCon=     1 RMS=1.28D-07 Max=8.77D-07 NDo=     1
 LinEq1:  Iter= 10 NonCon=     1 RMS=3.32D-08 Max=2.96D-07 NDo=     1
 LinEq1:  Iter= 11 NonCon=     1 RMS=7.26D-09 Max=1.20D-07 NDo=     1
 LinEq1:  Iter= 12 NonCon=     1 RMS=2.32D-09 Max=4.62D-08 NDo=     1
 LinEq1:  Iter= 13 NonCon=     1 RMS=8.10D-10 Max=1.20D-08 NDo=     1
 LinEq1:  Iter= 14 NonCon=     1 RMS=1.66D-10 Max=1.32D-09 NDo=     1
 LinEq1:  Iter= 15 NonCon=     0 RMS=2.58D-11 Max=1.50D-10 NDo=     1
 Linear equations converged to 1.000D-10 1.000D-09 after    15 iterations.
 End of Minotr F.D. properties file   721 does not exist.
 End of Minotr F.D. properties file   722 does not exist.
 End of Minotr F.D. properties file   788 does not exist.
 Calling FoFJK, ICntrl=  10002127 FMM=F ISym2X=0 I1Cent= 0 IOpClX= 0 NMat=1 NMatS=1 NMatT=0.
 ***** Axes restored to original set *****
 -------------------------------------------------------------------
 Center     Atomic                   Forces (Hartrees/Bohr)
 Number     Number              X              Y              Z
 -------------------------------------------------------------------
      1        6          -0.000222593   -0.000087726    0.000375367
      2        1          -0.000302278   -0.000017865    0.000105579
      3        1           0.000052378    0.000028777    0.000086874
      4        1           0.000174668    0.000013779   -0.000055727
      5        6          -0.000250794   -0.000503404   -0.000147949
      6        8           0.000232175   -0.000005621   -0.000111078
      7        7           0.000293066    0.000872238    0.004241245
      8        1           0.000460578    0.000147320    0.001703635
      9        6          -0.000790472   -0.001427388   -0.022858003
     10        1           0.000708743    0.001548604    0.012590709
     11        1           0.001119677    0.006368168    0.001739039
     12        1          -0.001475148   -0.006936884    0.002330308
 -------------------------------------------------------------------
 Cartesian Forces:  Max     0.022858003 RMS     0.004742997

 GradGradGradGradGradGradGradGradGradGradGradGradGradGradGradGradGradGrad
 Berny optimization.
 FormGI is forming the generalized inverse of G from B-inverse, IUseBI=4.
 Internal  Forces:  Max     0.007967481 RMS     0.002746411
 Search for a local minimum.
 Step number   1 out of a maximum of   55 on scan point     2 out of    13
 All quantities printed in internal units (Hartrees-Bohrs-Radians)
 Mixed Optimization -- RFO/linear search
 Second derivative matrix not updated -- first step.
 ITU=  0
     Eigenvalues ---    0.00576   0.01174   0.01281   0.02100   0.04846
     Eigenvalues ---    0.07136   0.07257   0.07469   0.15937   0.16000
     Eigenvalues ---    0.16000   0.16000   0.16000   0.16000   0.16000
     Eigenvalues ---    0.22016   0.25000   0.25000   0.30913   0.34275
     Eigenvalues ---    0.34277   0.34333   0.34334   0.34732   0.34912
     Eigenvalues ---    0.38195   0.45555   0.51136   0.899831000.00000
     Eigenvalues --- 1000.000001000.000001000.000001000.000001000.00000
     Eigenvalues --- 1000.000001000.000001000.000001000.000001000.00000
     Eigenvalues --- 1000.000001000.000001000.000001000.000001000.00000
 RFO step:  Lambda=-3.54302996D-03 EMin= 5.75555155D-03
 Linear search not attempted -- first point.
 Iteration  1 RMS(Cart)=  0.03994754 RMS(Int)=  0.00208320
 Iteration  2 RMS(Cart)=  0.00200632 RMS(Int)=  0.00083985
 Iteration  3 RMS(Cart)=  0.00000258 RMS(Int)=  0.00083985
 Iteration  4 RMS(Cart)=  0.00000000 RMS(Int)=  0.00083985
 Iteration  1 RMS(Cart)=  0.00007215 RMS(Int)=  0.00006787
 Iteration  2 RMS(Cart)=  0.00003931 RMS(Int)=  0.00007582
 Iteration  3 RMS(Cart)=  0.00002142 RMS(Int)=  0.00008563
 Iteration  4 RMS(Cart)=  0.00001167 RMS(Int)=  0.00009209
 Iteration  5 RMS(Cart)=  0.00000636 RMS(Int)=  0.00009587
 Iteration  6 RMS(Cart)=  0.00000346 RMS(Int)=  0.00009800
 Iteration  7 RMS(Cart)=  0.00000189 RMS(Int)=  0.00009917
 Iteration  8 RMS(Cart)=  0.00000103 RMS(Int)=  0.00009982
 Iteration  9 RMS(Cart)=  0.00000056 RMS(Int)=  0.00010018
 Variable       Old X    -DE/DX   Delta X   Delta X   Delta X     New X
                                 (Linear)    (Quad)   (Total)
    R1        2.06784  -0.00022   0.00000  -0.00064  -0.00064   2.06720
    R2        2.05837  -0.00006   0.00000  -0.00018  -0.00018   2.05820
    R3        2.06785   0.00002   0.00000   0.00006   0.00006   2.06790
    R4        2.86182   0.00007   0.00000   0.00023   0.00023   2.86205
    R5        2.32950  -0.00019   0.00000  -0.00021  -0.00021   2.32929
    R6        2.58759   0.00050   0.00000   0.00097   0.00097   2.58856
    R7        1.91350   0.00009   0.00000   0.00019   0.00019   1.91369
    R8        2.74084  -0.00007   0.00000  -0.00018  -0.00018   2.74066
    R9        2.06439  -0.00085   0.00000  -0.00242  -0.00242   2.06197
   R10        2.06907  -0.00208   0.00000  -0.00600  -0.00600   2.06307
   R11        2.06915   0.00209   0.00000   0.00605   0.00605   2.07519
    A1        1.90917  -0.00009   0.00000  -0.00068  -0.00068   1.90849
    A2        1.88100  -0.00004   0.00000  -0.00010  -0.00010   1.88090
    A3        1.94166   0.00019   0.00000   0.00116   0.00116   1.94282
    A4        1.90910   0.00005   0.00000   0.00030   0.00030   1.90940
    A5        1.88119  -0.00005   0.00000  -0.00038  -0.00038   1.88081
    A6        1.94158  -0.00006   0.00000  -0.00032  -0.00032   1.94126
    A7        2.14348  -0.00020   0.00000  -0.00081  -0.00089   2.14259
    A8        2.02107   0.00071   0.00000   0.00278   0.00270   2.02378
    A9        2.11864  -0.00050   0.00000  -0.00198  -0.00206   2.11657
   A10        1.98222   0.00027   0.00000   0.00075   0.00073   1.98295
   A11        2.21211   0.00046   0.00000   0.00150   0.00146   2.21357
   A12        2.08343  -0.00065   0.00000  -0.00401  -0.00406   2.07937
   A13        1.89141  -0.00020   0.00000  -0.00625  -0.00894   1.88248
   A14        2.00520  -0.00614   0.00000  -0.05312  -0.05457   1.95063
   A15        1.90402   0.00627   0.00000   0.05710   0.05672   1.96073
   A16        1.98176  -0.00486   0.00000  -0.06229  -0.06590   1.91585
   A17        1.77357   0.00717   0.00000   0.08057   0.07905   1.85261
   A18        1.89262  -0.00012   0.00000   0.00553   0.00612   1.89873
    D1        2.09378   0.00001   0.00000  -0.00451  -0.00451   2.08927
    D2       -1.04797  -0.00035   0.00000  -0.02799  -0.02799  -1.07597
    D3        0.00080   0.00004   0.00000  -0.00413  -0.00413  -0.00333
    D4       -3.14095  -0.00032   0.00000  -0.02761  -0.02761   3.11462
    D5       -2.09204   0.00004   0.00000  -0.00407  -0.00406  -2.09611
    D6        1.04940  -0.00032   0.00000  -0.02755  -0.02755   1.02184
    D7        3.08498   0.00090   0.00000   0.01631   0.01642   3.10140
    D8        0.05685   0.00014   0.00000   0.03485   0.03473   0.09158
    D9       -0.05677   0.00055   0.00000  -0.00681  -0.00669  -0.06345
   D10       -3.08490  -0.00021   0.00000   0.01174   0.01162  -3.07327
   D11        2.88111   0.00797   0.00000   0.00000  -0.00001   2.88110
   D12       -1.16495  -0.00361   0.00000  -0.13152  -0.12969  -1.29463
   D13        0.96394  -0.00326   0.00000  -0.11780  -0.11850   0.84544
   D14       -0.14112   0.00711   0.00000   0.01921   0.01890  -0.12222
   D15        2.09601  -0.00447   0.00000  -0.11231  -0.11078   1.98523
   D16       -2.05830  -0.00412   0.00000  -0.09859  -0.09959  -2.15788
         Item               Value     Threshold  Converged?
 Maximum Force            0.006515     0.000450     NO 
 RMS     Force            0.002138     0.000300     NO 
 Maximum Displacement     0.163011     0.001800     NO 
 RMS     Displacement     0.040142     0.001200     NO 
 Predicted change in Energy=-1.880093D-03
 GradGradGradGradGradGradGradGradGradGradGradGradGradGradGradGradGradGrad

                          Input orientation:                          
 ---------------------------------------------------------------------
 Center     Atomic      Atomic             Coordinates (Angstroms)
 Number     Number       Type             X           Y           Z
 ---------------------------------------------------------------------
      1          6           0       -0.713683   -1.357711   -0.025503
      2          1           0       -0.209331   -1.770578   -0.904037
      3          1           0       -1.768917   -1.625657   -0.056061
      4          1           0       -0.252072   -1.799450    0.862892
      5          6           0       -0.621398    0.153745    0.002678
      6          8           0       -1.614965    0.883068   -0.012715
      7          7           0        0.642864    0.675900    0.075964
      8          1           0        0.665524    1.688121    0.055482
      9          6           0        1.891657   -0.059649    0.022646
     10          1           0        2.694198    0.656441   -0.161065
     11          1           0        2.083693   -0.599093    0.952161
     12          1           0        1.921090   -0.772217   -0.812402
 ---------------------------------------------------------------------
                    Distance matrix (angstroms):
                    1          2          3          4          5
     1  C    0.000000
     2  H    1.093916   0.000000
     3  H    1.089150   1.781116   0.000000
     4  H    1.094287   1.767682   1.781992   0.000000
     5  C    1.514532   2.166783   2.118140   2.165950   0.000000
     6  O    2.415277   3.132427   2.513818   3.133699   1.232609
     7  N    2.446648   2.769818   3.336357   2.747276   1.369808
     8  H    3.344527   3.694407   4.113401   3.695544   2.003314
     9  C    2.911199   2.863594   3.982258   2.885914   2.522178
    10  H    3.960914   3.856541   5.013820   3.969937   3.357484
    11  H    3.058862   3.174242   4.112535   2.627665   2.964085
    12  H    2.811413   2.354531   3.862197   2.929924   2.825952
                    6          7          8          9         10
     6  O    0.000000
     7  N    2.269046   0.000000
     8  H    2.419377   1.012682   0.000000
     9  C    3.631303   1.450296   2.135224   0.000000
    10  H    4.317667   2.065075   2.286215   1.091149   0.000000
    11  H    4.099738   2.114076   2.836650   1.091731   1.785597
    12  H    3.985367   2.126052   2.895329   1.098146   1.750142
                   11         12
    11  H    0.000000
    12  H    1.780476   0.000000
 Stoichiometry    C3H7NO
 Framework group  C1[X(C3H7NO)]
 Deg. of freedom    30
 Full point group                 C1      NOp   1
 Largest Abelian subgroup         C1      NOp   1
 Largest concise Abelian subgroup C1      NOp   1
                         Standard orientation:                         
 ---------------------------------------------------------------------
 Center     Atomic      Atomic             Coordinates (Angstroms)
 Number     Number       Type             X           Y           Z
 ---------------------------------------------------------------------
      1          6           0       -0.717962    1.356392   -0.004590
      2          1           0       -0.227134    1.788939    0.872133
      3          1           0       -1.774020    1.622655    0.005031
      4          1           0       -0.244365    1.780125   -0.895443
      5          6           0       -0.622491   -0.155119    0.000766
      6          8           0       -1.614828   -0.886088    0.017360
      7          7           0        0.643660   -0.675993   -0.043139
      8          1           0        0.667889   -1.687498   -0.000775
      9          6           0        1.890192    0.063210    0.012503
     10          1           0        2.691312   -0.647080    0.222982
     11          1           0        2.094658    0.583171   -0.925426
     12          1           0        1.906228    0.793442    0.832521
 ---------------------------------------------------------------------
 Rotational constants (GHZ):      8.7889396      4.0956181      2.8968269
 Standard basis: 6-31G(d) (6D, 7F)
 There are    89 symmetry adapted cartesian basis functions of A   symmetry.
 There are    89 symmetry adapted basis functions of A   symmetry.
    89 basis functions,   168 primitive gaussians,    89 cartesian basis functions
    20 alpha electrons       20 beta electrons
       nuclear repulsion energy       179.6577095137 Hartrees.
 NAtoms=   12 NActive=   12 NUniq=   12 SFac= 1.00D+00 NAtFMM=   60 NAOKFM=F Big=F
 Integral buffers will be    131072 words long.
 Raffenetti 1 integral format.
 Two-electron integral symmetry is turned on.
 One-electron integrals computed using PRISM.
 NBasis=    89 RedAO= T EigKep=  3.77D-03  NBF=    89
 NBsUse=    89 1.00D-06 EigRej= -1.00D+00 NBFU=    89
 Initial guess from the checkpoint file:  "/scratch/bm543/Gau-6633.chk"
 B after Tr=     0.000000   -0.000000    0.000000
         Rot=    0.999985    0.004928    0.000456   -0.002236 Ang=   0.62 deg.
 ExpMin= 1.61D-01 ExpMax= 5.48D+03 ExpMxC= 8.25D+02 IAcc=1 IRadAn=         1 AccDes= 0.00D+00
 Harris functional with IExCor=  205 and IRadAn=       1 diagonalized for initial guess.
 HarFok:  IExCor=  205 AccDes= 0.00D+00 IRadAn=         1 IDoV= 1 UseB2=F ITyADJ=14
 ICtDFT=  3500011 ScaDFX=  1.000000  1.000000  1.000000  1.000000
 FoFCou: FMM=F IPFlag=           0 FMFlag=      100000 FMFlg1=           0
         NFxFlg=           0 DoJE=T BraDBF=F KetDBF=T FulRan=T
         wScrn=  0.000000 ICntrl=     500 IOpCl=  0 I1Cent=   200000004 NGrid=           0
         NMat0=    1 NMatS0=      1 NMatT0=    0 NMatD0=    1 NMtDS0=    0 NMtDT0=    0
 Petite list used in FoFCou.
 Keep R1 ints in memory in canonical form, NReq=8933654.
 Requested convergence on RMS density matrix=1.00D-08 within 128 cycles.
 Requested convergence on MAX density matrix=1.00D-06.
 Requested convergence on             energy=1.00D-06.
 No special actions if energy rises.
 SCF Done:  E(RHF) =  -246.998942039     A.U. after   12 cycles
            NFock= 12  Conv=0.78D-08     -V/T= 2.0027
 ExpMin= 1.61D-01 ExpMax= 5.48D+03 ExpMxC= 8.25D+02 IAcc=3 IRadAn=         5 AccDes= 0.00D+00
 HarFok:  IExCor=  205 AccDes= 0.00D+00 IRadAn=         5 IDoV=-2 UseB2=F ITyADJ=14
 ICtDFT= 12500011 ScaDFX=  1.000000  1.000000  1.000000  1.000000
 Range of M.O.s used for correlation:     6    89
 NBasis=    89 NAE=    20 NBE=    20 NFC=     5 NFV=     0
 NROrb=     84 NOA=    15 NOB=    15 NVA=    69 NVB=    69
 Fully direct method using O(ONN) memory.
 JobTyp=1 Pass  1:  I=   6 to  16 NPSUse=  2 ParTrn=F ParDer=T DoDerP=T.
 JobTyp=1 Pass  2:  I=  17 to  20 NPSUse=  2 ParTrn=F ParDer=T DoDerP=T.
 Spin components of T(2) and E(2):
     alpha-alpha T2 =       0.2926241191D-01 E2=     -0.9293570580D-01
     alpha-beta  T2 =       0.1693030592D+00 E2=     -0.5406078236D+00
     beta-beta   T2 =       0.2926241191D-01 E2=     -0.9293570580D-01
 ANorm=    0.1108073952D+01
 E2 =    -0.7264792352D+00 EUMP2 =    -0.24772542127431D+03
          IDoAtm=111111111111
          Differentiating once with respect to electric field.
                with respect to dipole field.
          Differentiating once with respect to nuclear coordinates.
 Keep R1 ints in memory in canonical form, NReq=8909688.
          There are     1 degrees of freedom in the 1st order CPHF.  IDoFFX=0 NUNeed=     1.
 LinEq1:  Iter=  0 NonCon=     1 RMS=6.59D-03 Max=1.25D-01 NDo=     1
 AX will form     1 AO Fock derivatives at one time.
 LinEq1:  Iter=  1 NonCon=     1 RMS=2.38D-03 Max=3.59D-02 NDo=     1
 LinEq1:  Iter=  2 NonCon=     1 RMS=7.54D-04 Max=9.81D-03 NDo=     1
 LinEq1:  Iter=  3 NonCon=     1 RMS=3.36D-04 Max=5.38D-03 NDo=     1
 LinEq1:  Iter=  4 NonCon=     1 RMS=6.47D-05 Max=5.82D-04 NDo=     1
 LinEq1:  Iter=  5 NonCon=     1 RMS=2.49D-05 Max=3.30D-04 NDo=     1
 LinEq1:  Iter=  6 NonCon=     1 RMS=6.61D-06 Max=8.48D-05 NDo=     1
 LinEq1:  Iter=  7 NonCon=     1 RMS=1.62D-06 Max=1.92D-05 NDo=     1
 LinEq1:  Iter=  8 NonCon=     1 RMS=4.43D-07 Max=5.19D-06 NDo=     1
 LinEq1:  Iter=  9 NonCon=     1 RMS=1.28D-07 Max=9.89D-07 NDo=     1
 LinEq1:  Iter= 10 NonCon=     1 RMS=3.34D-08 Max=3.56D-07 NDo=     1
 LinEq1:  Iter= 11 NonCon=     1 RMS=7.66D-09 Max=1.40D-07 NDo=     1
 LinEq1:  Iter= 12 NonCon=     1 RMS=2.47D-09 Max=4.65D-08 NDo=     1
 LinEq1:  Iter= 13 NonCon=     1 RMS=8.32D-10 Max=1.02D-08 NDo=     1
 LinEq1:  Iter= 14 NonCon=     1 RMS=1.66D-10 Max=1.32D-09 NDo=     1
 LinEq1:  Iter= 15 NonCon=     0 RMS=2.59D-11 Max=1.53D-10 NDo=     1
 Linear equations converged to 1.000D-10 1.000D-09 after    15 iterations.
 End of Minotr F.D. properties file   721 does not exist.
 End of Minotr F.D. properties file   722 does not exist.
 End of Minotr F.D. properties file   788 does not exist.
 Calling FoFJK, ICntrl=  10002127 FMM=F ISym2X=0 I1Cent= 0 IOpClX= 0 NMat=1 NMatS=1 NMatT=0.
 ***** Axes restored to original set *****
 -------------------------------------------------------------------
 Center     Atomic                   Forces (Hartrees/Bohr)
 Number     Number              X              Y              Z
 -------------------------------------------------------------------
      1        6           0.000105035    0.000051348   -0.000237377
      2        1          -0.000226989   -0.000209536   -0.000150491
      3        1           0.000002453    0.000048059   -0.000039413
      4        1           0.000222932    0.000207746   -0.000085520
      5        6          -0.000140533    0.000153196    0.002488649
      6        8          -0.000173296   -0.000005011   -0.000784555
      7        7          -0.000930342   -0.000739137   -0.003085827
      8        1           0.000132623   -0.000033006    0.000439295
      9        6           0.000197896    0.000233239   -0.005980103
     10        1           0.000769585   -0.000088377    0.003584801
     11        1           0.002327178   -0.000504816    0.001369813
     12        1          -0.002286543    0.000886295    0.002480728
 -------------------------------------------------------------------
 Cartesian Forces:  Max     0.005980103 RMS     0.001557607

 GradGradGradGradGradGradGradGradGradGradGradGradGradGradGradGradGradGrad
 Berny optimization.
 Using GEDIIS/GDIIS optimizer.
 FormGI is forming the generalized inverse of G from B-inverse, IUseBI=4.
 Internal  Forces:  Max     0.002776358 RMS     0.000958930
 Search for a local minimum.
 Step number   2 out of a maximum of   55 on scan point     2 out of    13
 All quantities printed in internal units (Hartrees-Bohrs-Radians)
 Mixed Optimization -- En-DIIS/RFO-DIIS
 Update second derivatives using D2CorX and points    1    2
 DE= -1.90D-03 DEPred=-1.88D-03 R= 1.01D+00
 TightC=F SS=  1.41D+00  RLast= 2.73D-01 DXNew= 5.0454D-01 8.1851D-01
 Trust test= 1.01D+00 RLast= 2.73D-01 DXMaxT set to 5.05D-01
 ITU=  1  0
 Use linear search instead of GDIIS.
     Eigenvalues ---    0.00572   0.01183   0.01290   0.02097   0.04302
     Eigenvalues ---    0.07131   0.07164   0.07470   0.15913   0.15968
     Eigenvalues ---    0.16000   0.16000   0.16000   0.16000   0.17819
     Eigenvalues ---    0.22020   0.24994   0.25022   0.30914   0.34274
     Eigenvalues ---    0.34333   0.34334   0.34720   0.34912   0.35270
     Eigenvalues ---    0.38214   0.45555   0.51135   0.899851000.00000
     Eigenvalues --- 1000.000001000.000001000.000001000.000001000.00000
     Eigenvalues --- 1000.000001000.000001000.000001000.000001000.00000
     Eigenvalues --- 1000.000001000.000001000.000001000.000001000.00000
 RFO step:  Lambda=-2.91780709D-04 EMin= 5.72308137D-03
 Quartic linear search produced a step of  0.07589.
 Iteration  1 RMS(Cart)=  0.01698291 RMS(Int)=  0.00023487
 Iteration  2 RMS(Cart)=  0.00023451 RMS(Int)=  0.00007331
 Iteration  3 RMS(Cart)=  0.00000004 RMS(Int)=  0.00007331
 Iteration  1 RMS(Cart)=  0.00000565 RMS(Int)=  0.00000531
 Iteration  2 RMS(Cart)=  0.00000307 RMS(Int)=  0.00000593
 Iteration  3 RMS(Cart)=  0.00000167 RMS(Int)=  0.00000670
 Iteration  4 RMS(Cart)=  0.00000091 RMS(Int)=  0.00000720
 Variable       Old X    -DE/DX   Delta X   Delta X   Delta X     New X
                                 (Linear)    (Quad)   (Total)
    R1        2.06720   0.00010  -0.00005   0.00030   0.00025   2.06745
    R2        2.05820  -0.00001  -0.00001  -0.00004  -0.00005   2.05814
    R3        2.06790  -0.00006   0.00000  -0.00019  -0.00018   2.06772
    R4        2.86205  -0.00009   0.00002  -0.00033  -0.00031   2.86174
    R5        2.32929   0.00015  -0.00002   0.00018   0.00016   2.32945
    R6        2.58856   0.00004   0.00007   0.00008   0.00015   2.58871
    R7        1.91369  -0.00004   0.00001  -0.00009  -0.00008   1.91361
    R8        2.74066   0.00055  -0.00001   0.00154   0.00153   2.74219
    R9        2.06197  -0.00010  -0.00018  -0.00029  -0.00047   2.06150
   R10        2.06307   0.00183  -0.00046   0.00573   0.00528   2.06835
   R11        2.07519  -0.00252   0.00046  -0.00792  -0.00746   2.06773
    A1        1.90849  -0.00017  -0.00005  -0.00144  -0.00149   1.90700
    A2        1.88090   0.00002  -0.00001   0.00028   0.00027   1.88117
    A3        1.94282   0.00035   0.00009   0.00229   0.00238   1.94520
    A4        1.90940   0.00021   0.00002   0.00152   0.00155   1.91094
    A5        1.88081  -0.00007  -0.00003  -0.00059  -0.00062   1.88019
    A6        1.94126  -0.00033  -0.00002  -0.00206  -0.00208   1.93918
    A7        2.14259  -0.00006  -0.00007  -0.00005  -0.00028   2.14231
    A8        2.02378  -0.00019   0.00021  -0.00058  -0.00054   2.02323
    A9        2.11657   0.00026  -0.00016   0.00136   0.00104   2.11761
   A10        1.98295  -0.00006   0.00006  -0.00010  -0.00004   1.98291
   A11        2.21357   0.00047   0.00011   0.00232   0.00243   2.21600
   A12        2.07937  -0.00036  -0.00031  -0.00171  -0.00203   2.07734
   A13        1.88248   0.00103  -0.00068   0.00795   0.00708   1.88956
   A14        1.95063   0.00195  -0.00414   0.01124   0.00700   1.95762
   A15        1.96073  -0.00247   0.00430  -0.01614  -0.01186   1.94887
   A16        1.91585  -0.00278  -0.00500  -0.01963  -0.02489   1.89096
   A17        1.85261   0.00235   0.00600   0.01966   0.02556   1.87817
   A18        1.89873  -0.00014   0.00046  -0.00308  -0.00257   1.89617
    D1        2.08927  -0.00036  -0.00034  -0.04219  -0.04253   2.04674
    D2       -1.07597   0.00002  -0.00212  -0.00773  -0.00986  -1.08583
    D3       -0.00333  -0.00031  -0.00031  -0.04141  -0.04172  -0.04505
    D4        3.11462   0.00007  -0.00210  -0.00695  -0.00905   3.10557
    D5       -2.09611  -0.00033  -0.00031  -0.04169  -0.04199  -2.13810
    D6        1.02184   0.00005  -0.00209  -0.00723  -0.00932   1.01252
    D7        3.10140   0.00015   0.00125  -0.01087  -0.00962   3.09178
    D8        0.09158  -0.00036   0.00264  -0.01532  -0.01270   0.07888
    D9       -0.06345   0.00052  -0.00051   0.02302   0.02253  -0.04092
   D10       -3.07327   0.00001   0.00088   0.01857   0.01945  -3.05383
   D11        2.88110   0.00174  -0.00000   0.00000  -0.00000   2.88110
   D12       -1.29463   0.00018  -0.00984  -0.01222  -0.02193  -1.31656
   D13        0.84544  -0.00037  -0.00899  -0.01980  -0.02885   0.81660
   D14       -0.12222   0.00118   0.00143  -0.00480  -0.00339  -0.12561
   D15        1.98523  -0.00038  -0.00841  -0.01702  -0.02532   1.95991
   D16       -2.15788  -0.00092  -0.00756  -0.02460  -0.03223  -2.19011
         Item               Value     Threshold  Converged?
 Maximum Force            0.002801     0.000450     NO 
 RMS     Force            0.000889     0.000300     NO 
 Maximum Displacement     0.042951     0.001800     NO 
 RMS     Displacement     0.016987     0.001200     NO 
 Predicted change in Energy=-1.576754D-04
 GradGradGradGradGradGradGradGradGradGradGradGradGradGradGradGradGradGrad

                          Input orientation:                          
 ---------------------------------------------------------------------
 Center     Atomic      Atomic             Coordinates (Angstroms)
 Number     Number       Type             X           Y           Z
 ---------------------------------------------------------------------
      1          6           0       -0.713948   -1.357711   -0.030476
      2          1           0       -0.225140   -1.764332   -0.920796
      3          1           0       -1.769411   -1.625937   -0.045924
      4          1           0       -0.236441   -1.804926    0.846587
      5          6           0       -0.622745    0.153366    0.010034
      6          8           0       -1.616054    0.882486   -0.025367
      7          7           0        0.641951    0.675369    0.078211
      8          1           0        0.664644    1.687542    0.057401
      9          6           0        1.892847   -0.058130    0.023984
     10          1           0        2.698379    0.653144   -0.163817
     11          1           0        2.106217   -0.580468    0.961865
     12          1           0        1.898362   -0.787484   -0.791662
 ---------------------------------------------------------------------
                    Distance matrix (angstroms):
                    1          2          3          4          5
     1  C    0.000000
     2  H    1.094049   0.000000
     3  H    1.089122   1.780261   0.000000
     4  H    1.094191   1.767885   1.782866   0.000000
     5  C    1.514368   2.168432   2.117520   2.164246   0.000000
     6  O    2.415016   3.121231   2.513190   3.144173   1.232693
     7  N    2.446158   2.775248   3.335579   2.741138   1.369887
     8  H    3.343920   3.696487   4.112717   3.692168   2.003324
     9  C    2.913290   2.879167   3.984350   2.874343   2.524506
    10  H    3.962990   3.868354   5.016897   3.959318   3.363015
    11  H    3.089041   3.221982   4.138736   2.645872   2.981900
    12  H    2.780058   2.340975   3.835581   2.876879   2.807827
                    6          7          8          9         10
     6  O    0.000000
     7  N    2.269848   0.000000
     8  H    2.420030   1.012641   0.000000
     9  C    3.633123   1.451104   2.134706   0.000000
    10  H    4.322742   2.070741   2.292378   1.090899   0.000000
    11  H    4.119486   2.121803   2.835499   1.094525   1.771895
    12  H    3.965744   2.115464   2.892874   1.094197   1.763413
                   11         12
    11  H    0.000000
    12  H    1.777896   0.000000
 Stoichiometry    C3H7NO
 Framework group  C1[X(C3H7NO)]
 Deg. of freedom    30
 Full point group                 C1      NOp   1
 Largest Abelian subgroup         C1      NOp   1
 Largest concise Abelian subgroup C1      NOp   1
                         Standard orientation:                         
 ---------------------------------------------------------------------
 Center     Atomic      Atomic             Coordinates (Angstroms)
 Number     Number       Type             X           Y           Z
 ---------------------------------------------------------------------
      1          6           0       -0.718864    1.355909   -0.004595
      2          1           0       -0.247937    1.783048    0.885756
      3          1           0       -1.775091    1.621366   -0.014793
      4          1           0       -0.226012    1.785473   -0.881992
      5          6           0       -0.623178   -0.155421   -0.010700
      6          8           0       -1.615172   -0.886464    0.021781
      7          7           0        0.643865   -0.675130   -0.043788
      8          1           0        0.668664   -1.686548   -0.000674
      9          6           0        1.891700    0.062967    0.018070
     10          1           0        2.695303   -0.641767    0.236317
     11          1           0        2.121423    0.565563   -0.926709
     12          1           0        1.880030    0.809760    0.817714
 ---------------------------------------------------------------------
 Rotational constants (GHZ):      8.7950393      4.0907091      2.8947444
 Standard basis: 6-31G(d) (6D, 7F)
 There are    89 symmetry adapted cartesian basis functions of A   symmetry.
 There are    89 symmetry adapted basis functions of A   symmetry.
    89 basis functions,   168 primitive gaussians,    89 cartesian basis functions
    20 alpha electrons       20 beta electrons
       nuclear repulsion energy       179.6340829229 Hartrees.
 NAtoms=   12 NActive=   12 NUniq=   12 SFac= 1.00D+00 NAtFMM=   60 NAOKFM=F Big=F
 Integral buffers will be    131072 words long.
 Raffenetti 1 integral format.
 Two-electron integral symmetry is turned on.
 One-electron integrals computed using PRISM.
 NBasis=    89 RedAO= T EigKep=  3.77D-03  NBF=    89
 NBsUse=    89 1.00D-06 EigRej= -1.00D+00 NBFU=    89
 Initial guess from the checkpoint file:  "/scratch/bm543/Gau-6633.chk"
 B after Tr=    -0.000000    0.000000   -0.000000
         Rot=    0.999999    0.000559    0.001099   -0.000196 Ang=   0.14 deg.
 ExpMin= 1.61D-01 ExpMax= 5.48D+03 ExpMxC= 8.25D+02 IAcc=1 IRadAn=         1 AccDes= 0.00D+00
 Harris functional with IExCor=  205 and IRadAn=       1 diagonalized for initial guess.
 HarFok:  IExCor=  205 AccDes= 0.00D+00 IRadAn=         1 IDoV= 1 UseB2=F ITyADJ=14
 ICtDFT=  3500011 ScaDFX=  1.000000  1.000000  1.000000  1.000000
 FoFCou: FMM=F IPFlag=           0 FMFlag=      100000 FMFlg1=           0
         NFxFlg=           0 DoJE=T BraDBF=F KetDBF=T FulRan=T
         wScrn=  0.000000 ICntrl=     500 IOpCl=  0 I1Cent=   200000004 NGrid=           0
         NMat0=    1 NMatS0=      1 NMatT0=    0 NMatD0=    1 NMtDS0=    0 NMtDT0=    0
 Petite list used in FoFCou.
 Keep R1 ints in memory in canonical form, NReq=8933681.
 Requested convergence on RMS density matrix=1.00D-08 within 128 cycles.
 Requested convergence on MAX density matrix=1.00D-06.
 Requested convergence on             energy=1.00D-06.
 No special actions if energy rises.
 SCF Done:  E(RHF) =  -246.999078248     A.U. after   12 cycles
            NFock= 12  Conv=0.26D-08     -V/T= 2.0027
 ExpMin= 1.61D-01 ExpMax= 5.48D+03 ExpMxC= 8.25D+02 IAcc=3 IRadAn=         5 AccDes= 0.00D+00
 HarFok:  IExCor=  205 AccDes= 0.00D+00 IRadAn=         5 IDoV=-2 UseB2=F ITyADJ=14
 ICtDFT= 12500011 ScaDFX=  1.000000  1.000000  1.000000  1.000000
 Range of M.O.s used for correlation:     6    89
 NBasis=    89 NAE=    20 NBE=    20 NFC=     5 NFV=     0
 NROrb=     84 NOA=    15 NOB=    15 NVA=    69 NVB=    69
 Fully direct method using O(ONN) memory.
 JobTyp=1 Pass  1:  I=   6 to  16 NPSUse=  2 ParTrn=F ParDer=T DoDerP=T.
 JobTyp=1 Pass  2:  I=  17 to  20 NPSUse=  2 ParTrn=F ParDer=T DoDerP=T.
 Spin components of T(2) and E(2):
     alpha-alpha T2 =       0.2926504181D-01 E2=     -0.9293684822D-01
     alpha-beta  T2 =       0.1693043290D+00 E2=     -0.5406073595D+00
     beta-beta   T2 =       0.2926504181D-01 E2=     -0.9293684822D-01
 ANorm=    0.1108076898D+01
 E2 =    -0.7264810560D+00 EUMP2 =    -0.24772555930441D+03
          IDoAtm=111111111111
          Differentiating once with respect to electric field.
                with respect to dipole field.
          Differentiating once with respect to nuclear coordinates.
 Keep R1 ints in memory in canonical form, NReq=8909669.
          There are     1 degrees of freedom in the 1st order CPHF.  IDoFFX=0 NUNeed=     1.
 LinEq1:  Iter=  0 NonCon=     1 RMS=6.59D-03 Max=1.25D-01 NDo=     1
 AX will form     1 AO Fock derivatives at one time.
 LinEq1:  Iter=  1 NonCon=     1 RMS=2.38D-03 Max=3.59D-02 NDo=     1
 LinEq1:  Iter=  2 NonCon=     1 RMS=7.55D-04 Max=9.81D-03 NDo=     1
 LinEq1:  Iter=  3 NonCon=     1 RMS=3.36D-04 Max=5.38D-03 NDo=     1
 LinEq1:  Iter=  4 NonCon=     1 RMS=6.48D-05 Max=5.78D-04 NDo=     1
 LinEq1:  Iter=  5 NonCon=     1 RMS=2.50D-05 Max=3.29D-04 NDo=     1
 LinEq1:  Iter=  6 NonCon=     1 RMS=6.65D-06 Max=8.36D-05 NDo=     1
 LinEq1:  Iter=  7 NonCon=     1 RMS=1.64D-06 Max=1.85D-05 NDo=     1
 LinEq1:  Iter=  8 NonCon=     1 RMS=4.51D-07 Max=4.77D-06 NDo=     1
 LinEq1:  Iter=  9 NonCon=     1 RMS=1.32D-07 Max=1.37D-06 NDo=     1
 LinEq1:  Iter= 10 NonCon=     1 RMS=3.52D-08 Max=4.62D-07 NDo=     1
 LinEq1:  Iter= 11 NonCon=     1 RMS=8.78D-09 Max=1.63D-07 NDo=     1
 LinEq1:  Iter= 12 NonCon=     1 RMS=2.77D-09 Max=4.20D-08 NDo=     1
 LinEq1:  Iter= 13 NonCon=     1 RMS=8.71D-10 Max=7.36D-09 NDo=     1
 LinEq1:  Iter= 14 NonCon=     1 RMS=1.68D-10 Max=1.35D-09 NDo=     1
 LinEq1:  Iter= 15 NonCon=     0 RMS=2.56D-11 Max=1.55D-10 NDo=     1
 Linear equations converged to 1.000D-10 1.000D-09 after    15 iterations.
 End of Minotr F.D. properties file   721 does not exist.
 End of Minotr F.D. properties file   722 does not exist.
 End of Minotr F.D. properties file   788 does not exist.
 Calling FoFJK, ICntrl=  10002127 FMM=F ISym2X=0 I1Cent= 0 IOpClX= 0 NMat=1 NMatS=1 NMatT=0.
 ***** Axes restored to original set *****
 -------------------------------------------------------------------
 Center     Atomic                   Forces (Hartrees/Bohr)
 Number     Number              X              Y              Z
 -------------------------------------------------------------------
      1        6          -0.000029529   -0.000050984    0.001441159
      2        1          -0.000168574    0.000280332   -0.000180054
      3        1          -0.000012235   -0.000034902    0.000044818
      4        1           0.000125913   -0.000283433   -0.000147338
      5        6           0.000306007    0.000056256   -0.002193325
      6        8           0.000050687   -0.000026570    0.000972040
      7        7          -0.000068295    0.000088730   -0.001338626
      8        1          -0.000008554    0.000055491    0.000461685
      9        6          -0.000376922   -0.000191016   -0.000492093
     10        1          -0.000005587    0.000152973    0.000678136
     11        1           0.000292790   -0.000352379    0.000373814
     12        1          -0.000105700    0.000305503    0.000379786
 -------------------------------------------------------------------
 Cartesian Forces:  Max     0.002193325 RMS     0.000570572

 GradGradGradGradGradGradGradGradGradGradGradGradGradGradGradGradGradGrad
 Berny optimization.
 Using GEDIIS/GDIIS optimizer.
 FormGI is forming the generalized inverse of G from B-inverse, IUseBI=4.
 Internal  Forces:  Max     0.000840045 RMS     0.000340361
 Search for a local minimum.
 Step number   3 out of a maximum of   55 on scan point     2 out of    13
 All quantities printed in internal units (Hartrees-Bohrs-Radians)
 Mixed Optimization -- En-DIIS/RFO-DIIS
 Swapping is turned off.
 Update second derivatives using D2CorX and points    1    2    3
 DE= -1.38D-04 DEPred=-1.58D-04 R= 8.75D-01
 TightC=F SS=  1.41D+00  RLast= 1.07D-01 DXNew= 8.4853D-01 3.1967D-01
 Trust test= 8.75D-01 RLast= 1.07D-01 DXMaxT set to 5.05D-01
 ITU=  1  1  0
     Eigenvalues ---    0.00468   0.01135   0.01624   0.02138   0.04837
     Eigenvalues ---    0.07128   0.07199   0.07576   0.15910   0.15927
     Eigenvalues ---    0.15997   0.16000   0.16000   0.16077   0.17475
     Eigenvalues ---    0.22007   0.24998   0.25058   0.30918   0.34175
[...]
           R2           1.08914   1.08923   1.08917   1.08915   1.08914
           R3           1.09419   1.09350   1.09384   1.09372   1.09377
           R4           1.51439   1.51447   1.51519   1.51564   1.51582
           R5           1.23267   1.24188   1.23273   1.23303   1.23314
           R6           1.36917   1.37702   1.37075   1.37004   1.36976
           R7           1.01251   1.01403   1.01389   1.01396   1.01400
           R8           1.45038   1.45509   1.44978   1.44915   1.44894
           R9           1.09070   1.09074   1.09237   1.09354   1.09483
           R10          1.09468   1.09333   1.09673   1.09598   1.09494
           R11          1.09470   1.09561   1.08989   1.08894   1.08848
           A1         109.38692 108.98425 109.15312 109.11158 109.15623
           A2         107.76963 107.82782 108.02362 108.11972 108.15879
           A3         111.25144 110.88406 111.28494 111.44785 111.57418
           A4         109.38295 109.76178 109.35202 109.26509 109.16690
           A5         107.78326 107.86225 107.40009 107.23689 107.17146
           A6         111.24712 111.49626 111.59430 111.61942 111.56967
           A7         122.81625 122.81110 122.31524 122.12334 122.04535
           A8         115.79805 115.79527 116.68360 117.05152 117.19706
           A9         121.38570 121.36978 120.99033 120.82208 120.75758
           A10        113.88066 111.94250 112.94669 112.87751 112.83063
           A11        126.86319 124.95572 127.60962 128.57894 128.95839
           A12        119.25615 117.37971 118.23420 118.23283 118.21059
           A13        108.08433 108.08907 109.17702 110.06580 111.07232
           A14        111.99938 111.40607 112.80588 112.14028 111.16068
           A15        112.00737 112.54721 109.93723 109.77327 109.76295
           A16        107.98746 108.42207 108.77627 108.76328 108.60754
           A17        107.98922 107.57131 107.45790 107.64000 108.05466
           A18        108.61772 108.65467 108.53850 108.33588 108.07990
           D1         119.96184 111.42977 117.55727 118.19695 119.37970
           D2         -60.03930 -70.32641 -61.25608 -61.17103 -60.59542
           D3           0.04273  -7.83026  -1.85471  -1.15663  -0.06030
           D4        -179.95842 170.41356 179.33193 179.47539 179.96458
           D5        -119.86895-128.40814-121.69049-120.79717-119.51072
           D6          60.12991  49.83568  59.49615  59.83485  60.51416
           D7         179.99155 171.44355-176.06059-177.98286-179.91091
           D8           0.00010  18.99990  -8.98850  -4.58135  -0.14311
           D9          -0.00957 -10.28513   5.10925   2.64043   0.11364
           D10       -180.00103-162.72878 172.18134 176.04195 179.88143
           D11       -179.92482 165.07518 150.07504 135.07511 120.07518
           D12        -61.08927 -75.90406 -88.86577-103.70479-118.87224
           D13         61.23271  46.42324  32.42732  16.77138   0.64505
           D14          0.08414  13.97252 -43.44842 -51.82668 -60.16767
           D15        118.91969 132.99328  77.61077  69.39342  60.88491
           D16       -118.75833-104.67942-161.09615-170.13041-179.59781
                           6         7         8         9        10
     Eigenvalues --  -247.72524-247.72561-247.72593-247.72587-247.72591
           R1           1.09371   1.09382   1.09402   1.09425   1.09412
           R2           1.08915   1.08917   1.08918   1.08917   1.08918
           R3           1.09393   1.09407   1.09412   1.09403   1.09400
           R4           1.51568   1.51525   1.51467   1.51418   1.51473
           R5           1.23307   1.23279   1.23241   1.23218   1.23247
           R6           1.36993   1.37066   1.37188   1.37275   1.37175
           R7           1.01394   1.01385   1.01378   1.01364   1.01380
           R8           1.44919   1.44980   1.45090   1.45225   1.45076
           R9           1.09602   1.09686   1.09713   1.09647   1.09083
           R10          1.09373   1.09257   1.09155   1.09075   1.09149
           R11          1.08869   1.08956   1.09095   1.09278   1.09723
           A1         109.25858 109.35554 109.39483 109.32836 109.23924
           A2         108.12594 108.03162 107.91729 107.81256 107.93359
           A3         111.62184 111.59115 111.50466 111.34215 111.15092
           A4         109.10801 109.13793 109.25515 109.44738 109.38988
           A5         107.23385 107.39573 107.61282 107.79592 107.58460
           A6         111.45185 111.29556 111.13103 111.09531 111.51654
           A7         122.11830 122.30855 122.56122 122.77660 122.52787
           A8         117.05692 116.69401 116.23648 115.88126 116.29618
           A9         120.82221 120.98731 121.18193 121.31644 121.15680
           A10        112.89666 112.98640 112.93907 112.81656 112.93825
           A11        128.63179 127.68421 126.47850 125.71606 126.61145
           A12        118.22042 118.23952 118.16045 118.10573 118.16986
           A13        112.01540 112.70868 113.03657 112.94797 110.28317
           A14        110.05619 109.10532 108.47963 108.20378 108.62778
           A15        109.89384 110.10411 110.37172 110.80887 112.97698
           A16        108.41681 108.29972 108.34675 108.46465 107.82717
           A17        108.50286 108.78254 108.75464 108.46835 108.51254
           A18        107.84469 107.70145 107.69535 107.79731 108.47227
           D1         120.80208 121.81248 121.90283 119.84021 117.60294
           D2         -59.77648 -59.33556 -59.72212 -61.98335 -60.82084
           D3           1.17003   1.97700   1.93200  -0.06900  -1.95136
           D4        -179.40852-179.17104-179.69295 178.10744 179.62486
           D5        -118.17960-117.41989-117.64773-119.97759-121.90517
           D6          61.24185  61.43208  60.72732  58.19885  59.67105
           D7         178.17999 176.20996 174.49791 173.77256-174.64489
           D8           4.11513   8.49059  12.64574  15.02859 -12.27075
           D9          -2.39061  -4.92187  -7.10289  -8.02213   6.90807
           D10       -176.45547-172.64123-168.95506-166.76610 169.28221
           D11        105.07513  90.07514  75.07523  60.07524  45.07504
           D12       -134.23491-149.58206-164.74265-179.83881 163.04478
           D13        -15.61240 -31.58366 -46.97007 -61.85738 -76.55107
           D14        -68.71877 -77.08271 -85.93795 -97.66285-153.36574
           D15         51.97119  43.26010  34.24418  22.42310 -35.39600
           D16        170.59370 161.25849 152.01676 140.40453  85.00815
                          11        12        13
     Eigenvalues --  -247.72558-247.72524-247.72510
           R1           1.09405   1.09390   1.09378
           R2           1.08916   1.08915   1.08915
           R3           1.09382   1.09372   1.09378
           R4           1.51529   1.51568   1.51576
           R5           1.23281   1.23306   1.23314
           R6           1.37062   1.36994   1.36977
           R7           1.01387   1.01396   1.01401
           R8           1.44973   1.44911   1.44896
           R9           1.08958   1.08879   1.08851
           R10          1.09237   1.09355   1.09487
           R11          1.09697   1.09610   1.09487
           A1         109.13870 109.11596 109.15820
           A2         108.04581 108.12850 108.15352
           A3         111.31642 111.46858 111.56946
           A4         109.33726 109.24721 109.16361
           A5         107.37409 107.22581 107.17870
           A6         111.59432 111.61378 111.57382
           A7         122.28266 122.10634 122.04753
           A8         116.74545 117.07698 117.19245
           A9         120.96241 120.81424 120.76002
           A10        112.94354 112.86770 112.83852
           A11        127.77173 128.64189 128.95439
           A12        118.23010 118.23227 118.20706
           A13        109.98845 109.82397 109.76257
           A14        109.34327 110.19973 111.10351
           A15        112.59087 111.94572 111.12002
           A16        107.95430 108.00785 108.06302
           A17        108.29284 108.16359 108.07917
           A18        108.55183 108.59316 108.61026
           D1         117.63746 118.38786 119.38981
           D2         -61.25202 -61.04751 -60.61691
           D3          -1.75895  -0.97609  -0.05441
           D4         179.35158 179.58854 179.93887
           D5        -121.56013-120.58445-119.50777
           D6          59.55039  59.98018  60.48551
           D7        -176.29814-178.16785-180.01083
           D8          -8.38470  -4.18473   0.05520
           D9           4.79674   2.38905  -0.01746
           D10        172.71018 176.37217 180.04857
           D11         30.07515  15.07510   0.07507
           D12        148.45603 133.94305 119.53502
           D13        -90.79490-105.09097-119.41539
           D14       -162.56671-171.21855-179.85587
           D15        -44.18583 -52.35060 -60.39592
           D16         76.56324  68.61538  60.65367
                          Input orientation:                          
 ---------------------------------------------------------------------
 Center     Atomic      Atomic             Coordinates (Angstroms)
 Number     Number       Type             X           Y           Z
 ---------------------------------------------------------------------
      1          6           0       -0.714686   -1.266000   -0.509005
      2          1           0       -0.176947   -1.315882   -1.460169
      3          1           0       -1.770587   -1.467394   -0.684367
      4          1           0       -0.307598   -2.035342    0.153368
      5          6           0       -0.619255    0.112766    0.113431
      6          8           0       -1.618276    0.799987    0.337764
      7          7           0        0.632693    0.574823    0.422321
      8          1           0        0.619752    1.501377    0.834078
      9          6           0        1.914724   -0.074469    0.237105
     10          1           0        1.769259   -1.054330   -0.214089
     11          1           0        2.561339    0.511248   -0.424375
     12          1           0        2.428240   -0.213864    1.193977
 ---------------------------------------------------------------------
                    Distance matrix (angstroms):
                    1          2          3          4          5
     1  C    0.000000
     2  H    1.093785   0.000000
     3  H    1.089146   1.778908   0.000000
     4  H    1.093776   1.771495   1.778961   0.000000
     5  C    1.515760   2.170919   2.111623   2.170966   0.000000
     6  O    2.408691   3.128401   2.491780   3.129053   1.233142
     7  N    2.464026   2.788198   3.342329   2.787372   1.369775
     8  H    3.353054   3.719576   4.102803   3.719103   1.995673
     9  C    2.981648   2.965962   4.046093   2.964920   2.543895
    10  H    2.510331   2.325691   3.594759   2.326101   2.678504
    11  H    3.728017   3.451012   4.769507   3.879395   3.250261
    12  H    3.726274   3.878908   4.767563   3.447530   3.249845
                    6          7          8          9         10
     6  O    0.000000
     7  N    2.263782   0.000000
     8  H    2.397299   1.014009   0.000000
     9  C    3.641002   1.448961   2.125234   0.000000
    10  H    3.901080   2.085890   2.991932   1.088515   0.000000
    11  H    4.258333   2.107275   2.516708   1.094865   1.767101
    12  H    4.258554   2.107479   2.518374   1.094867   1.767283
                   11         12
    11  H    0.000000
    12  H    1.778360   0.000000
 Stoichiometry    C3H7NO
 Framework group  C1[X(C3H7NO)]
 Deg. of freedom    30
 Full point group                 C1      NOp   1
 Largest Abelian subgroup         C1      NOp   1
 Largest concise Abelian subgroup C1      NOp   1
                         Standard orientation:                         
 ---------------------------------------------------------------------
 Center     Atomic      Atomic             Coordinates (Angstroms)
 Number     Number       Type             X           Y           Z
 ---------------------------------------------------------------------
      1          6           0       -0.788106    1.343904   -0.000078
      2          1           0       -0.337661    1.800185    0.886078
      3          1           0       -1.858481    1.545237   -0.000839
      4          1           0       -0.336269    1.800373   -0.885416
      5          6           0       -0.615832   -0.162035   -0.000039
      6          8           0       -1.579913   -0.930923    0.000214
      7          7           0        0.665799   -0.645464   -0.000441
      8          1           0        0.704232   -1.658745   -0.000212
      9          6           0        1.915814    0.087305    0.000175
     10          1           0        1.715270    1.157184    0.002412
     11          1           0        2.510538   -0.148466    0.888683
     12          1           0        2.509829   -0.145178   -0.889674
 ---------------------------------------------------------------------
 Rotational constants (GHZ):      8.7740369      4.0394933      2.8656295

 **********************************************************************

            Population analysis using the SCF density.

 **********************************************************************

 Orbital symmetries:
       Occupied  (A) (A) (A) (A) (A) (A) (A) (A) (A) (A) (A) (A)
                 (A) (A) (A) (A) (A) (A) (A) (A)
       Virtual   (A) (A) (A) (A) (A) (A) (A) (A) (A) (A) (A) (A)
                 (A) (A) (A) (A) (A) (A) (A) (A) (A) (A) (A) (A)
                 (A) (A) (A) (A) (A) (A) (A) (A) (A) (A) (A) (A)
                 (A) (A) (A) (A) (A) (A) (A) (A) (A) (A) (A) (A)
                 (A) (A) (A) (A) (A) (A) (A) (A) (A) (A) (A) (A)
                 (A) (A) (A) (A) (A) (A) (A) (A) (A)
 The electronic state is 1-A.
 Alpha  occ. eigenvalues --  -20.51439 -15.58616 -11.35118 -11.27702 -11.23647
 Alpha  occ. eigenvalues --   -1.36226  -1.22265  -1.00544  -0.95494  -0.77856
 Alpha  occ. eigenvalues --   -0.67092  -0.66360  -0.63481  -0.58733  -0.57363
 Alpha  occ. eigenvalues --   -0.55614  -0.55326  -0.50538  -0.41195  -0.37971
 Alpha virt. eigenvalues --    0.19915   0.22104   0.25341   0.27899   0.29999
 Alpha virt. eigenvalues --    0.30739   0.32830   0.32956   0.36397   0.41460
 Alpha virt. eigenvalues --    0.49058   0.56904   0.69319   0.71320   0.74262
 Alpha virt. eigenvalues --    0.81366   0.83361   0.87007   0.88509   0.92291
 Alpha virt. eigenvalues --    0.95130   1.01947   1.03982   1.09382   1.13067
 Alpha virt. eigenvalues --    1.14000   1.14394   1.14462   1.17962   1.19330
 Alpha virt. eigenvalues --    1.20827   1.26701   1.31878   1.34457   1.38023
 Alpha virt. eigenvalues --    1.55337   1.60371   1.63961   1.68734   1.73443
 Alpha virt. eigenvalues --    1.81797   1.90336   2.05637   2.07981   2.11101
 Alpha virt. eigenvalues --    2.17353   2.21342   2.25829   2.30619   2.31413
 Alpha virt. eigenvalues --    2.39269   2.48965   2.53224   2.56508   2.61626
 Alpha virt. eigenvalues --    2.62010   2.78565   2.83595   2.86545   2.96684
 Alpha virt. eigenvalues --    2.98788   3.26165   3.35440   3.48212   4.32574
 Alpha virt. eigenvalues --    4.40057   4.59534   4.72802   4.89347
          Condensed to atoms (all electrons):
               1          2          3          4          5          6
     1  C    5.314376   0.372306   0.383932   0.372304   0.346917  -0.075241
     2  H    0.372306   0.511599  -0.018290  -0.026503  -0.027256   0.001191
     3  H    0.383932  -0.018290   0.455586  -0.018294  -0.033519   0.004477
     4  H    0.372304  -0.026503  -0.018294   0.511631  -0.027269   0.001196
     5  C    0.346917  -0.027256  -0.033519  -0.027269   4.120368   0.611251
     6  O   -0.075241   0.001191   0.004477   0.001196   0.611251   8.171013
     7  N   -0.118541   0.002600   0.003806   0.002608   0.294144  -0.097782
     8  H    0.005374  -0.000191  -0.000104  -0.000190  -0.014661   0.007733
     9  C   -0.000184  -0.002132   0.000170  -0.002131  -0.019585   0.002121
    10  H   -0.001435  -0.001354   0.000208  -0.001364  -0.003022   0.000032
    11  H   -0.000073   0.000077  -0.000003   0.000076   0.000511  -0.000017
    12  H   -0.000073   0.000076  -0.000003   0.000077   0.000505  -0.000017
               7          8          9         10         11         12
     1  C   -0.118541   0.005374  -0.000184  -0.001435  -0.000073  -0.000073
     2  H    0.002600  -0.000191  -0.002132  -0.001354   0.000077   0.000076
     3  H    0.003806  -0.000104   0.000170   0.000208  -0.000003  -0.000003
     4  H    0.002608  -0.000190  -0.002131  -0.001364   0.000076   0.000077
     5  C    0.294144  -0.014661  -0.019585  -0.003022   0.000511   0.000505
     6  O   -0.097782   0.007733   0.002121   0.000032  -0.000017  -0.000017
     7  N    7.309945   0.310989   0.202927  -0.035988  -0.046988  -0.047027
     8  H    0.310989   0.322356  -0.022135   0.002557  -0.001473  -0.001453
     9  C    0.202927  -0.022135   4.912848   0.400498   0.401229   0.401226
    10  H   -0.035988   0.002557   0.400498   0.508356  -0.026465  -0.026500
    11  H   -0.046988  -0.001473   0.401229  -0.026465   0.534569  -0.039503
    12  H   -0.047027  -0.001453   0.401226  -0.026500  -0.039503   0.534648
 Mulliken charges:
               1
     1  C   -0.599663
     2  H    0.187876
     3  H    0.222034
     4  H    0.187859
     5  C    0.751617
     6  O   -0.625958
     7  N   -0.780692
     8  H    0.391199
     9  C   -0.274854
    10  H    0.184476
    11  H    0.178061
    12  H    0.178044
 Sum of Mulliken charges =  -0.00000
 Mulliken charges with hydrogens summed into heavy atoms:
               1
     1  C   -0.001894
     5  C    0.751617
     6  O   -0.625958
     7  N   -0.389494
     9  C    0.265728
 Electronic spatial extent (au):  <R**2>=            455.5802
 Charge=             -0.0000 electrons
 Dipole moment (field-independent basis, Debye):
    X=              3.8585    Y=              2.0794    Z=              0.0011  Tot=              4.3832
 Quadrupole moment (field-independent basis, Debye-Ang):
   XX=            -33.8437   YY=            -29.7165   ZZ=            -31.1360
   XY=             -4.9626   XZ=              0.0031   YZ=              0.0004
 Traceless Quadrupole moment (field-independent basis, Debye-Ang):
   XX=             -2.2783   YY=              1.8489   ZZ=              0.4294
   XY=             -4.9626   XZ=              0.0031   YZ=              0.0004
 Octapole moment (field-independent basis, Debye-Ang**2):
  XXX=             11.3555  YYY=             -6.5825  ZZZ=              0.0017  XYY=              4.7135
  XXY=              5.5626  XXZ=             -0.0005  XZZ=             -0.6309  YZZ=             -0.4007
  YYZ=              0.0029  XYZ=             -0.0023
 Hexadecapole moment (field-independent basis, Debye-Ang**3):
 XXXX=           -360.2571 YYYY=           -174.3450 ZZZZ=            -41.8746 XXXY=            -11.7713
 XXXZ=              0.0130 YYYX=             -4.8272 YYYZ=              0.0050 ZZZX=             -0.0049
 ZZZY=             -0.0002 XXYY=            -92.7373 XXZZ=            -64.9986 YYZZ=            -36.9400
 XXYZ=             -0.0066 YYXZ=              0.0056 ZZXY=              0.9994
 N-N= 1.793322597961D+02 E-N=-9.373468778154D+02  KE= 2.463370163781D+02

 This type of calculation cannot be archived.


 IT PROBABLY IS NOT POSSIBLE FOR A SCIENTIST TO INTERROGATE NATURE 
 FROM A WHOLLY DISINTERESTED VIEWPOINT.
 EVEN IF HE HAS NO PARTICULAR AXE TO GRIND, HE IS LIKELY TO HAVE 
 A DISTINCTIVE WAY OF VIEWING NATURE.

                                                   -- JOHN LOSEE
 Job cpu time:       0 days  3 hours 44 minutes 19.2 seconds.
 File lengths (MBytes):  RWF=      7 Int=      0 D2E=      0 Chk=      3 Scr=      1
 Normal termination of Gaussian 09 at Thu Sep 13 13:57:09 2018.
